# OOMMF: rectangular mesh v1.0
# Segment count: 1
# Begin: Segment
# Begin: Header
# Desc: Time (s) :  3.0000014100084324e-07
# Title: m_y
# meshtype: rectangular
# meshunit: m
# xbase: 1.9999999999999997e-09
# ybase: 1.9999999999999997e-09
# zbase: 2.5e-09
# xstepsize: 3.9999999999999994e-09
# ystepsize: 3.9999999999999994e-09
# zstepsize: 5e-09
# xmin: 0
# ymin: 0
# zmin: 0
# xmax: 4e-06
# ymax: 1e-06
# zmax: 5e-09
# xnodes: 1000
# ynodes: 250
# znodes: 1
# ValueRangeMinMag: 1e-08
# ValueRangeMaxMag: 1
# valueunit: ?
# valuemultiplier: 1
# End: Header
# Begin: Data Text
0.060255185 
0.043359477 
0.030481156 
0.02219965 
0.017264681 
0.014513522 
0.012611352 
0.01106512 
0.009750123 
0.008644989 
0.007735097 
0.006992889 
0.006384125 
0.0058767754 
0.0054455725 
0.0050724875 
0.004745212 
0.004455263 
0.0041965055 
0.0039642337 
0.003754657 
0.0035646441 
0.0033915848 
0.0032332984 
0.0030879606 
0.0029540346 
0.0028302171 
0.0027154027 
0.0026086473 
0.002509133 
0.0024161483 
0.0023290687 
0.002247349 
0.0021705083 
0.0020981233 
0.0020298185 
0.001965259 
0.0019041434 
0.0018462032 
0.0017911987 
0.001738912 
0.0016891476 
0.0016417226 
0.0015964747 
0.0015532629 
0.0015119545 
0.0014724262 
0.0014345623 
0.0013982572 
0.0013634206 
0.0013299652 
0.0012978115 
0.0012668865 
0.00123712 
0.0012084495 
0.0011808187 
0.0011541734 
0.001128462 
0.0011036367 
0.0010796533 
0.0010564735 
0.0010340628 
0.0010123859 
0.0009914044 
0.0009710872 
0.00095141015 
0.00093234295 
0.0009138594 
0.00089593814 
0.0008785534 
0.0008616832 
0.00084531045 
0.0008294139 
0.00081397314 
0.0007989704 
0.0007843907 
0.00077021786 
0.0007564365 
0.0007430317 
0.00072998833 
0.00071729487 
0.0007049379 
0.00069290196 
0.00068117626 
0.0006697509 
0.0006586121 
0.000647749 
0.0006371531 
0.0006268151 
0.0006167234 
0.00060686667 
0.0005972351 
0.00058782165 
0.00057862164 
0.0005696273 
0.0005608282 
0.0005522162 
0.00054378476 
0.00053552794 
0.000527439 
0.000519512 
0.0005117406 
0.000504119 
0.00049664336 
0.0004893104 
0.0004821143 
0.00047504887 
0.000468111 
0.00046129862 
0.00045461062 
0.00044804395 
0.0004415928 
0.00043525427 
0.00042902722 
0.00042290852 
0.00041689686 
0.00041099367 
0.00040519462 
0.00039949478 
0.00039389625 
0.0003883992 
0.00038300274 
0.00037770145 
0.0003724952 
0.0003673858 
0.00036237267 
0.00035745525 
0.00035262862 
0.00034789185 
0.00034324705 
0.00033869076 
0.00033422338 
0.00032984538 
0.00032555062 
0.0003213391 
0.00031721246 
0.00031316743 
0.0003092016 
0.00030531286 
0.0003014979 
0.00029775826 
0.00029409377 
0.00029049977 
0.00028697008 
0.00028350536 
0.0002801056 
0.0002767653 
0.00027348427 
0.0002702615 
0.00026709217 
0.0002639734 
0.00026090434 
0.00025788404 
0.00025490782 
0.0002519725 
0.0002490763 
0.00024621957 
0.00024340194 
0.00024062011 
0.00023786939 
0.00023515004 
0.00023246018 
0.0002297984 
0.00022716403 
0.00022455696 
0.0002219748 
0.00021941561 
0.00021688153 
0.00021437339 
0.00021188747 
0.00020942098 
0.00020697693 
0.00020455744 
0.0002021629 
0.00019979398 
0.00019744635 
0.00019512152 
0.00019282302 
0.00019054922 
0.00018830196 
0.00018608292 
0.00018389069 
0.00018172621 
0.0001795924 
0.00017749018 
0.00017541823 
0.00017337494 
0.00017136404 
0.00016938773 
0.00016744559 
0.00016553953 
0.00016366699 
0.00016182785 
0.00016002312 
0.00015825297 
0.00015651886 
0.00015482097 
0.00015315693 
0.00015152543 
0.00014992793 
0.00014836504 
0.00014683424 
0.00014533167 
0.00014385866 
0.00014241766 
0.00014100541 
0.00013961988 
0.00013825901 
0.00013692175 
0.00013560783 
0.00013431539 
0.00013304187 
0.00013178706 
0.00013054853 
0.00012932456 
0.00012811579 
0.00012692028 
0.00012573418 
0.00012455463 
0.00012338396 
0.00012222258 
0.0001210677 
0.00011991845 
0.00011877126 
0.00011762702 
0.0001164858 
0.00011534586 
0.00011420756 
0.000113071575 
0.00011193572 
0.0001107999 
0.000109666515 
0.00010853542 
0.000107404696 
0.00010627452 
0.00010514653 
0.00010402289 
0.00010290395 
0.000101791375 
0.00010068262 
9.957984e-05 
9.848523e-05 
9.739895e-05 
9.6321855e-05 
9.525705e-05 
9.4203264e-05 
9.316172e-05 
9.21341e-05 
9.112413e-05 
9.0126945e-05 
8.9146575e-05 
8.818309e-05 
8.72392e-05 
8.631629e-05 
8.541357e-05 
8.452912e-05 
8.366537e-05 
8.282294e-05 
8.199996e-05 
8.119812e-05 
8.041889e-05 
7.9659796e-05 
7.89198e-05 
7.820117e-05 
7.750279e-05 
7.6821794e-05 
7.6157216e-05 
7.551044e-05 
7.4880525e-05 
7.4266114e-05 
7.3667055e-05 
7.3079515e-05 
7.25034e-05 
7.193734e-05 
7.138012e-05 
7.083112e-05 
7.028856e-05 
6.9751215e-05 
6.921794e-05 
6.8687696e-05 
6.8159905e-05 
6.7631794e-05 
6.7101784e-05 
6.657112e-05 
6.603848e-05 
6.550305e-05 
6.496424e-05 
6.44191e-05 
6.38686e-05 
6.331326e-05 
6.275094e-05 
6.218297e-05 
6.160989e-05 
6.103113e-05 
6.044508e-05 
5.9854134e-05 
5.925899e-05 
5.8658272e-05 
5.8052756e-05 
5.744481e-05 
5.6835168e-05 
5.622369e-05 
5.5612523e-05 
5.5001216e-05 
5.4390814e-05 
5.3782365e-05 
5.3176784e-05 
5.2576503e-05 
5.1982617e-05 
5.1395375e-05 
5.081546e-05 
5.0244736e-05 
4.96842e-05 
4.9133578e-05 
4.859367e-05 
4.806717e-05 
4.7554346e-05 
4.7055753e-05 
4.6571942e-05 
4.6101846e-05 
4.5647157e-05 
4.520715e-05 
4.4782006e-05 
4.4372453e-05 
4.3978387e-05 
4.3600117e-05 
4.323519e-05 
4.2884923e-05 
4.2549087e-05 
4.2225267e-05 
4.191294e-05 
4.1612035e-05 
4.1323005e-05 
4.1044164e-05 
4.0773324e-05 
4.0509276e-05 
4.0251016e-05 
3.9997773e-05 
3.974901e-05 
3.9503575e-05 
3.9259176e-05 
3.901548e-05 
3.877136e-05 
3.852508e-05 
3.8276885e-05 
3.8024045e-05 
3.7766255e-05 
3.7503272e-05 
3.723451e-05 
3.696047e-05 
3.667932e-05 
3.6388745e-05 
3.6088488e-05 
3.5780376e-05 
3.546407e-05 
3.513947e-05 
3.480672e-05 
3.446523e-05 
3.4115354e-05 
3.3758002e-05 
3.3393047e-05 
3.302171e-05 
3.264317e-05 
3.22595e-05 
3.1873773e-05 
3.148436e-05 
3.1092728e-05 
3.069826e-05 
3.0302383e-05 
2.9907633e-05 
2.9514053e-05 
2.912233e-05 
2.8735098e-05 
2.835342e-05 
2.7976106e-05 
2.760524e-05 
2.7242604e-05 
2.6888221e-05 
2.6542204e-05 
2.6205822e-05 
2.5881205e-05 
2.5568399e-05 
2.5266469e-05 
2.4975661e-05 
2.4696383e-05 
2.4430006e-05 
2.4175963e-05 
2.3933662e-05 
2.3703542e-05 
2.3485823e-05 
2.3278853e-05 
2.3082845e-05 
2.2899007e-05 
2.2722963e-05 
2.2554028e-05 
2.2394837e-05 
2.224407e-05 
2.2099788e-05 
2.1961896e-05 
2.182676e-05 
2.169459e-05 
2.1565293e-05 
2.1436465e-05 
2.1308206e-05 
2.1179952e-05 
2.1049413e-05 
2.0915462e-05 
2.0778438e-05 
2.0636817e-05 
2.0488791e-05 
2.0333275e-05 
2.0170295e-05 
2.0001034e-05 
1.9825122e-05 
1.9640655e-05 
1.9445457e-05 
1.9240051e-05 
1.9024825e-05 
1.8800974e-05 
1.8567305e-05 
1.8324166e-05 
1.807209e-05 
1.7810666e-05 
1.7541499e-05 
1.726437e-05 
1.697931e-05 
1.6686661e-05 
1.6388227e-05 
1.6086238e-05 
1.5781041e-05 
1.547316e-05 
1.5161493e-05 
1.4847285e-05 
1.453262e-05 
1.4218909e-05 
1.390746e-05 
1.35992905e-05 
1.3295093e-05 
1.2993743e-05 
1.2697193e-05 
1.240882e-05 
1.2126495e-05 
1.18492635e-05 
1.1581361e-05 
1.1324603e-05 
1.1077881e-05 
1.0840223e-05 
1.0611588e-05 
1.0392275e-05 
1.0182895e-05 
9.984183e-06 
9.79575e-06 
9.617692e-06 
9.450093e-06 
9.2907e-06 
9.139205e-06 
8.997663e-06 
8.863462e-06 
8.734637e-06 
8.612403e-06 
8.4969415e-06 
8.3868235e-06 
8.280246e-06 
8.174375e-06 
8.070089e-06 
7.966767e-06 
7.863949e-06 
7.759964e-06 
7.6534925e-06 
7.5438375e-06 
7.429752e-06 
7.3108226e-06 
7.1869263e-06 
7.05565e-06 
6.915682e-06 
6.768367e-06 
6.6140215e-06 
6.451698e-06 
6.2806625e-06 
6.0988054e-06 
5.906167e-06 
5.704112e-06 
5.4930547e-06 
5.272477e-06 
5.042572e-06 
4.802769e-06 
4.5541888e-06 
4.2976912e-06 
4.034155e-06 
3.7621787e-06 
3.4815364e-06 
3.196272e-06 
2.9074101e-06 
2.614133e-06 
2.3184716e-06 
2.0189304e-06 
1.7167085e-06 
1.415559e-06 
1.1136473e-06 
8.1413367e-07 
5.1787066e-07 
2.2360273e-07 
-6.719479e-08 
-3.5295454e-07 
-6.334877e-07 
-9.0879615e-07 
-1.178108e-06 
-1.4394737e-06 
-1.6921964e-06 
-1.9353567e-06 
-2.1702726e-06 
-2.3984785e-06 
-2.6178325e-06 
-2.8275037e-06 
-3.0285041e-06 
-3.220014e-06 
-3.4026227e-06 
-3.577652e-06 
-3.7451389e-06 
-3.905156e-06 
-4.058091e-06 
-4.205063e-06 
-4.348208e-06 
-4.484998e-06 
-4.616542e-06 
-4.7443673e-06 
-4.8696065e-06 
-4.9956725e-06 
-5.120363e-06 
-5.2456953e-06 
-5.372674e-06 
-5.5005257e-06 
-5.6312915e-06 
-5.7661787e-06 
-5.905877e-06 
-6.0512343e-06 
-6.2017048e-06 
-6.360176e-06 
-6.5279287e-06 
-6.7019564e-06 
-6.8827e-06 
-7.0727388e-06 
-7.2718594e-06 
-7.4810323e-06 
-7.700656e-06 
-7.929664e-06 
-8.167718e-06 
-8.414395e-06 
-8.670033e-06 
-8.935204e-06 
-9.208881e-06 
-9.490409e-06 
-9.778841e-06 
-1.007502e-05 
-1.03783395e-05 
-1.0686825e-05 
-1.099895e-05 
-1.1313944e-05 
-1.1632331e-05 
-1.1955145e-05 
-1.22793745e-05 
-1.2604192e-05 
-1.2928228e-05 
-1.3250162e-05 
-1.3571097e-05 
-1.3889929e-05 
-1.4204199e-05 
-1.451448e-05 
-1.48198515e-05 
-1.5120002e-05 
-1.5415892e-05 
-1.5704712e-05 
-1.598494e-05 
-1.6258024e-05 
-1.6522832e-05 
-1.6781409e-05 
-1.7032722e-05 
-1.7275457e-05 
-1.7511196e-05 
-1.7738897e-05 
-1.795889e-05 
-1.8172103e-05 
-1.8379407e-05 
-1.8579854e-05 
-1.8773648e-05 
-1.8963914e-05 
-1.9151768e-05 
-1.9334653e-05 
-1.951297e-05 
-1.9689232e-05 
-1.9864274e-05 
-2.003971e-05 
-2.0216368e-05 
-2.0395211e-05 
-2.0575293e-05 
-2.0757829e-05 
-2.0943773e-05 
-2.1134585e-05 
-2.1330925e-05 
-2.153226e-05 
-2.1740854e-05 
-2.1957168e-05 
-2.218265e-05 
-2.241562e-05 
-2.265564e-05 
-2.2904189e-05 
-2.3161389e-05 
-2.3429926e-05 
-2.3708173e-05 
-2.3995997e-05 
-2.4293637e-05 
-2.4598974e-05 
-2.4913541e-05 
-2.5236513e-05 
-2.5567684e-05 
-2.5908099e-05 
-2.625507e-05 
-2.6609316e-05 
-2.6971602e-05 
-2.7338103e-05 
-2.7707847e-05 
-2.8081577e-05 
-2.8459073e-05 
-2.8840577e-05 
-2.9223835e-05 
-2.9608607e-05 
-2.9993455e-05 
-3.037756e-05 
-3.075938e-05 
-3.113983e-05 
-3.151856e-05 
-3.1893327e-05 
-3.2263524e-05 
-3.263021e-05 
-3.2994565e-05 
-3.3353135e-05 
-3.3703807e-05 
-3.4047684e-05 
-3.4386278e-05 
-3.4720913e-05 
-3.505028e-05 
-3.537292e-05 
-3.5689365e-05 
-3.600001e-05 
-3.63048e-05 
-3.6604444e-05 
-3.689993e-05 
-3.7191723e-05 
-3.7479047e-05 
-3.776442e-05 
-3.8049682e-05 
-3.8331975e-05 
-3.8611983e-05 
-3.889096e-05 
-3.917114e-05 
-3.9455295e-05 
-3.974152e-05 
-4.0029907e-05 
-4.0321986e-05 
-4.0618932e-05 
-4.092117e-05 
-4.1230254e-05 
-4.154573e-05 
-4.186798e-05 
-4.2198993e-05 
-4.25385e-05 
-4.2889907e-05 
-4.3249005e-05 
-4.3616143e-05 
-4.3993947e-05 
-4.4381773e-05 
-4.478215e-05 
-4.5193337e-05 
-4.561463e-05 
-4.604662e-05 
-4.648937e-05 
-4.6941357e-05 
-4.740293e-05 
-4.787438e-05 
-4.8355014e-05 
-4.884403e-05 
-4.934179e-05 
-4.9848983e-05 
-5.036144e-05 
-5.0878178e-05 
-5.1400588e-05 
-5.1928564e-05 
-5.2461564e-05 
-5.299874e-05 
-5.354017e-05 
-5.4083357e-05 
-5.462718e-05 
-5.5172022e-05 
-5.5717264e-05 
-5.6262474e-05 
-5.6806562e-05 
-5.7349396e-05 
-5.7892372e-05 
-5.843533e-05 
-5.8974092e-05 
-5.950945e-05 
-6.0041846e-05 
-6.0571696e-05 
-6.1101004e-05 
-6.1628394e-05 
-6.215343e-05 
-6.267637e-05 
-6.319734e-05 
-6.371643e-05 
-6.4234984e-05 
-6.475337e-05 
-6.5270586e-05 
-6.5787855e-05 
-6.6308545e-05 
-6.683347e-05 
-6.73589e-05 
-6.7886205e-05 
-6.841748e-05 
-6.895435e-05 
-6.949871e-05 
-7.004947e-05 
-7.060775e-05 
-7.117426e-05 
-7.174976e-05 
-7.233435e-05 
-7.2929135e-05 
-7.3534866e-05 
-7.415189e-05 
-7.478188e-05 
-7.5424934e-05 
-7.6082695e-05 
-7.675224e-05 
-7.743279e-05 
-7.8128774e-05 
-7.8840916e-05 
-7.956843e-05 
-8.031047e-05 
-8.1066624e-05 
-8.1837876e-05 
-8.262339e-05 
-8.3422085e-05 
-8.4235384e-05 
-8.506197e-05 
-8.5900785e-05 
-8.675415e-05 
-8.7620974e-05 
-8.85003e-05 
-8.93885e-05 
-9.02871e-05 
-9.1196096e-05 
-9.211759e-05 
-9.304912e-05 
-9.398865e-05 
-9.4937364e-05 
-9.589467e-05 
-9.685816e-05 
-9.782825e-05 
-9.880532e-05 
-9.978881e-05 
-0.00010077741 
-0.000101772166 
-0.00010277384 
-0.00010378204 
-0.0001047932 
-0.00010580858 
-0.00010682996 
-0.000107856664 
-0.000108891 
-0.00010993158 
-0.000110977875 
-0.000112031135 
-0.000113092 
-0.000114159775 
-0.000115236115 
-0.00011632057 
-0.000117414274 
-0.000118519245 
-0.0001196361 
-0.00012076658 
-0.00012190708 
-0.00012305919 
-0.00012422641 
-0.00012541047 
-0.00012661298 
-0.0001278323 
-0.00012906894 
-0.00013032426 
-0.00013159834 
-0.00013289259 
-0.00013420949 
-0.0001355479 
-0.0001369078 
-0.00013829152 
-0.00013970054 
-0.00014113606 
-0.00014259362 
-0.00014407368 
-0.00014558043 
-0.0001471147 
-0.00014867696 
-0.00015026508 
-0.00015187994 
-0.00015352094 
-0.00015518814 
-0.00015688354 
-0.00015860578 
-0.00016035364 
-0.00016212733 
-0.00016392733 
-0.00016575576 
-0.00016761183 
-0.00016949057 
-0.00017139272 
-0.00017332118 
-0.00017527644 
-0.00017725908 
-0.00017926618 
-0.00018129784 
-0.0001833546 
-0.00018543603 
-0.00018754244 
-0.00018967403 
-0.00019183001 
-0.00019400983 
-0.00019621641 
-0.00019845062 
-0.0002007116 
-0.00020299692 
-0.00020530782 
-0.0002076465 
-0.00021001544 
-0.0002124164 
-0.00021484646 
-0.00021730684 
-0.00021979932 
-0.00022232415 
-0.0002248842 
-0.00022747992 
-0.00023011063 
-0.00023277831 
-0.00023548596 
-0.00023823438 
-0.0002410266 
-0.00024385957 
-0.00024673474 
-0.0002496579 
-0.00025262832 
-0.00025564912 
-0.0002587223 
-0.0002618465 
-0.00026502326 
-0.00026825457 
-0.00027154305 
-0.00027489 
-0.00027829478 
-0.00028175875 
-0.0002852853 
-0.00028887723 
-0.0002925344 
-0.00029625432 
-0.00030004006 
-0.00030389443 
-0.00030782045 
-0.00031182184 
-0.00031589335 
-0.00032003544 
-0.00032425357 
-0.00032854892 
-0.0003329213 
-0.00033737175 
-0.00034189923 
-0.0003465068 
-0.00035119944 
-0.0003559792 
-0.00036084282 
-0.0003657876 
-0.00037081982 
-0.0003759445 
-0.00038116067 
-0.00038647122 
-0.00039187857 
-0.00039738297 
-0.00040298747 
-0.00040869229 
-0.00041449995 
-0.0004204141 
-0.00042643744 
-0.00043257422 
-0.00043882662 
-0.0004451986 
-0.00045169482 
-0.00045831347 
-0.00046505907 
-0.00047193907 
-0.00047895833 
-0.00048612163 
-0.00049343077 
-0.0005008896 
-0.0005085041 
-0.0005162791 
-0.00052422145 
-0.00053233583 
-0.000540628 
-0.0005491036 
-0.00055776857 
-0.00056663 
-0.0005756941 
-0.0005849681 
-0.0005944599 
-0.0006041759 
-0.00061412633 
-0.0006243194 
-0.0006347603 
-0.000645459 
-0.00065642456 
-0.0006676672 
-0.0006791968 
-0.00069102313 
-0.00070315565 
-0.0007156054 
-0.00072838657 
-0.0007415132 
-0.00075499475 
-0.00076884235 
-0.000783072 
-0.0007977002 
-0.00081274385 
-0.00082822004 
-0.0008441434 
-0.0008605311 
-0.0008774041 
-0.0008947812 
-0.0009126871 
-0.00093114533 
-0.0009501777 
-0.00096981216 
-0.0009900775 
-0.0010110057 
-0.0010326244 
-0.0010549575 
-0.0010780327 
-0.0011018758 
-0.0011265178 
-0.0011520293 
-0.0011785681 
-0.001206425 
-0.0012359933 
-0.0012675306 
-0.0013005385 
-0.0013327211 
-0.0013589484 
-0.0013886408 
-0.0014217709 
-0.0014582925 
-0.0014980999 
-0.0015410273 
-0.0015868831 
-0.0016354531 
-0.001686518 
-0.0017398776 
-0.0017953794 
-0.0018529496 
-0.0019126163 
-0.0019745186 
-0.0020389287 
-0.0021062451 
-0.0021769851 
-0.0022517724 
-0.002331296 
-0.0024162852 
-0.002507472 
-0.0026055751 
-0.0027113303 
-0.0028255093 
-0.0029489694 
-0.0030827117 
-0.0032279426 
-0.003386139 
-0.0035590914 
-0.0037489708 
-0.0039584194 
-0.0041906624 
-0.004449686 
-0.004740467 
-0.005069328 
-0.0054444424 
-0.0058765663 
-0.0063801846 
-0.006975309 
-0.0076903375 
-0.008566781 
-0.00966724 
-0.011089057 
-0.012987899 
-0.015618385 
-0.019403432 
-0.025049001 
-0.033672046 
-0.04670242 
-0.063735224 
0.0478843 
0.037998457 
0.028397052 
0.021455174 
0.017083662 
0.014589384 
0.012803502 
0.011302689 
0.009997977 
0.00888747 
0.007966514 
0.0072120316 
0.0065914174 
0.0060730353 
0.0056315996 
0.0052489927 
0.004912844 
0.004614633 
0.0043482 
0.0041088057 
0.0038926254 
0.0036964873 
0.0035177402 
0.0033541634 
0.0032038942 
0.0030653658 
0.0029372459 
0.0028184017 
0.0027078649 
0.0026047966 
0.0025084673 
0.0024182354 
0.0023335393 
0.0022538854 
0.002178838 
0.0021080084 
0.0020410516 
0.0019776605 
0.0019175551 
0.001860487 
0.0018062341 
0.0017545911 
0.0017053719 
0.0016584105 
0.0016135572 
0.001570675 
0.0015296345 
0.001490319 
0.0014526226 
0.0014164461 
0.0013817013 
0.0013483057 
0.0013161842 
0.001285265 
0.001255482 
0.0012267764 
0.0011990926 
0.0011723778 
0.0011465828 
0.0011216615 
0.0010975751 
0.0010742861 
0.001051757 
0.0010299503 
0.0010088353 
0.0009883834 
0.0009685656 
0.0009493556 
0.0009307289 
0.00091265875 
0.0008951254 
0.00087810954 
0.0008615872 
0.00084553903 
0.00082994875 
0.00081479823 
0.0008000713 
0.00078575197 
0.0007718236 
0.00075827143 
0.000745084 
0.0007322478 
0.0007197469 
0.0007075669 
0.0006956986 
0.00068413065 
0.0006728507 
0.0006618475 
0.0006511118 
0.0006406318 
0.0006303969 
0.0006203979 
0.0006106255 
0.00060107536 
0.0005917365 
0.0005825996 
0.0005736571 
0.0005649021 
0.00055632944 
0.00054792984 
0.0005396973 
0.0005316258 
0.0005237104 
0.000515946 
0.0005083266 
0.00050084793 
0.0004935061 
0.00048629678 
0.00047921704 
0.0004722644 
0.00046543498 
0.00045872666 
0.00045213502 
0.0004456576 
0.00043929307 
0.00043303773 
0.00042689402 
0.0004208598 
0.00041492912 
0.00040910215 
0.0004033797 
0.00039776188 
0.0003922461 
0.00038682768 
0.0003815072 
0.00037628706 
0.00037116613 
0.0003661422 
0.00036121323 
0.00035637923 
0.00035163862 
0.00034698957 
0.00034243386 
0.00033796762 
0.00033359035 
0.00032929986 
0.0003250938 
0.00032097066 
0.00031693064 
0.00031297095 
0.0003090868 
0.0003052809 
0.0003015497 
0.00029788757 
0.0002942937 
0.000290767 
0.000287304 
0.00028390327 
0.00028056194 
0.00027727697 
0.00027404577 
0.00027086656 
0.00026773702 
0.00026465338 
0.00026161288 
0.00025861402 
0.00025565535 
0.00025273568 
0.00024985234 
0.00024700206 
0.00024418326 
0.00024139468 
0.00023863453 
0.0002359021 
0.00023319735 
0.00023051734 
0.00022786163 
0.0002252302 
0.00022262268 
0.00022003817 
0.00021747475 
0.00021493445 
0.00021241787 
0.0002099251 
0.00020745705 
0.0002050119 
0.00020259093 
0.00020019531 
0.00019782565 
0.00019548285 
0.00019316816 
0.00019088203 
0.00018862485 
0.0001863985 
0.00018420444 
0.00018204266 
0.00017991198 
0.00017781492 
0.00017575371 
0.00017372826 
0.00017173984 
0.00016978756 
0.00016787078 
0.00016599074 
0.00016414803 
0.00016234291 
0.00016057571 
0.00015884472 
0.00015714977 
0.00015549097 
0.00015386775 
0.00015227818 
0.00015072079 
0.0001491957 
0.00014770274 
0.00014624021 
0.00014480711 
0.000143401 
0.00014201939 
0.00014066216 
0.000139328 
0.0001380139 
0.00013671942 
0.00013544247 
0.0001341812 
0.00013293527 
0.00013170172 
0.00013047823 
0.00012926392 
0.0001280575 
0.00012685911 
0.00012566718 
0.00012447975 
0.00012329503 
0.00012211282 
0.00012093225 
0.00011975299 
0.000118574186 
0.00011739654 
0.00011621927 
0.00011504059 
0.000113862385 
0.000112686124 
0.00011150965 
0.0001103341 
0.00010915959 
0.000107988184 
0.00010682082 
0.00010565825 
0.000104500126 
0.00010334812 
0.00010220354 
0.00010106746 
9.994046e-05 
9.882635e-05 
9.772327e-05 
9.6633215e-05 
9.555746e-05 
9.44994e-05 
9.3455485e-05 
9.242931e-05 
9.142171e-05 
9.043443e-05 
8.946873e-05 
8.852417e-05 
8.760085e-05 
8.669948e-05 
8.582006e-05 
8.496318e-05 
8.412908e-05 
8.331823e-05 
8.252888e-05 
8.1761704e-05 
8.1016355e-05 
8.02918e-05 
7.958781e-05 
7.890283e-05 
7.823673e-05 
7.758789e-05 
7.695538e-05 
7.633927e-05 
7.573714e-05 
7.514707e-05 
7.456743e-05 
7.399763e-05 
7.343626e-05 
7.288213e-05 
7.233388e-05 
7.17894e-05 
7.124818e-05 
7.0708214e-05 
7.016824e-05 
6.962733e-05 
6.908482e-05 
6.8539244e-05 
6.7990215e-05 
6.7436304e-05 
6.687628e-05 
6.631011e-05 
6.5736895e-05 
6.5156564e-05 
6.457007e-05 
6.397746e-05 
6.337685e-05 
6.276813e-05 
6.215374e-05 
6.1534e-05 
6.090806e-05 
6.027647e-05 
5.96411e-05 
5.9003385e-05 
5.836317e-05 
5.772192e-05 
5.7080586e-05 
5.643997e-05 
5.5801003e-05 
5.516482e-05 
5.453341e-05 
5.3908854e-05 
5.3291147e-05 
5.2680556e-05 
5.207983e-05 
5.1489907e-05 
5.0910792e-05 
5.0343944e-05 
4.979119e-05 
4.9252347e-05 
4.872827e-05 
4.8220707e-05 
4.772869e-05 
4.72527e-05 
4.6792866e-05 
4.6349676e-05 
4.5923494e-05 
4.5513993e-05 
4.512116e-05 
4.4744047e-05 
4.4381955e-05 
4.4035696e-05 
4.370401e-05 
4.338478e-05 
4.3078056e-05 
4.2783562e-05 
4.2499636e-05 
4.2225176e-05 
4.1958803e-05 
4.1699055e-05 
4.1444404e-05 
4.119413e-05 
4.094773e-05 
4.070334e-05 
4.045947e-05 
4.0214276e-05 
3.9967254e-05 
3.9717594e-05 
3.946387e-05 
3.9204504e-05 
3.893856e-05 
3.8666938e-05 
3.838832e-05 
3.8100883e-05 
3.780392e-05 
3.7497317e-05 
3.7181595e-05 
3.6856443e-05 
3.6521e-05 
3.61761e-05 
3.5822013e-05 
3.5458244e-05 
3.508571e-05 
3.470547e-05 
3.4317098e-05 
3.3921126e-05 
3.3519525e-05 
3.3113367e-05 
3.270319e-05 
3.2289812e-05 
3.187337e-05 
3.1456657e-05 
3.1040156e-05 
3.0624324e-05 
3.0210644e-05 
2.9800789e-05 
2.9396644e-05 
2.8997825e-05 
2.8606022e-05 
2.8222375e-05 
2.7846605e-05 
2.7481014e-05 
2.7126533e-05 
2.6784244e-05 
2.645339e-05 
2.613545e-05 
2.583072e-05 
2.5538242e-05 
2.525889e-05 
2.4993393e-05 
2.4741863e-05 
2.4503188e-05 
2.4277133e-05 
2.4064093e-05 
2.3863493e-05 
2.367489e-05 
2.3495846e-05 
2.332553e-05 
2.316589e-05 
2.301538e-05 
2.287174e-05 
2.2734426e-05 
2.2601209e-05 
2.2471406e-05 
2.2344877e-05 
2.2219512e-05 
2.2094624e-05 
2.196937e-05 
2.1842425e-05 
2.1711674e-05 
2.1576827e-05 
2.1437036e-05 
2.1290325e-05 
2.1135915e-05 
2.0974036e-05 
2.0804766e-05 
2.0627234e-05 
2.0439631e-05 
2.024073e-05 
2.0031779e-05 
1.9811914e-05 
1.958106e-05 
1.9339566e-05 
1.9087762e-05 
1.8825764e-05 
1.8554032e-05 
1.8272885e-05 
1.7981742e-05 
1.7682443e-05 
1.7375865e-05 
1.7062543e-05 
1.674408e-05 
1.6420954e-05 
1.6094576e-05 
1.5764837e-05 
1.5432835e-05 
1.5099892e-05 
1.4767335e-05 
1.4436749e-05 
1.4108884e-05 
1.3784983e-05 
1.3465777e-05 
1.3152036e-05 
1.2844826e-05 
1.2544723e-05 
1.2252524e-05 
1.1969577e-05 
1.169768e-05 
1.1436028e-05 
1.1184802e-05 
1.0944556e-05 
1.0714316e-05 
1.0495102e-05 
1.0287547e-05 
1.0091685e-05 
9.907368e-06 
9.733162e-06 
9.5691e-06 
9.415219e-06 
9.271073e-06 
9.134963e-06 
9.006053e-06 
8.8845945e-06 
8.769561e-06 
8.660256e-06 
8.555173e-06 
8.452392e-06 
8.351147e-06 
8.251362e-06 
8.151613e-06 
8.0506925e-06 
7.947696e-06 
7.8409585e-06 
7.7297e-06 
7.613467e-06 
7.490705e-06 
7.3603082e-06 
7.2221997e-06 
7.0755746e-06 
6.920029e-06 
6.755361e-06 
6.5811987e-06 
6.3960483e-06 
6.199226e-06 
5.9915433e-06 
5.7740017e-06 
5.545641e-06 
5.3064578e-06 
5.057105e-06 
4.797902e-06 
4.529262e-06 
4.2521197e-06 
3.9662295e-06 
3.6723118e-06 
3.3719164e-06 
3.0668064e-06 
2.756851e-06 
2.4431395e-06 
2.1264282e-06 
1.8071452e-06 
1.4873694e-06 
1.1673458e-06 
8.4977677e-07 
5.3473224e-07 
2.2256906e-07 
-8.598119e-08 
-3.9013327e-07 
-6.87273e-07 
-9.780554e-07 
-1.2628991e-06 
-1.5391738e-06 
-1.8062011e-06 
-2.0640791e-06 
-2.3122336e-06 
-2.5510599e-06 
-2.7805606e-06 
-3.000036e-06 
-3.209874e-06 
-3.4095822e-06 
-3.5996152e-06 
-3.7801362e-06 
-3.9518845e-06 
-4.1155986e-06 
-4.2720367e-06 
-4.421704e-06 
-4.5654087e-06 
-4.7023577e-06 
-4.83446e-06 
-4.962582e-06 
-5.0874987e-06 
-5.211578e-06 
-5.3348263e-06 
-5.4581305e-06 
-5.5833143e-06 
-5.7098664e-06 
-5.8388755e-06 
-5.9726412e-06 
-6.111445e-06 
-6.255569e-06 
-6.406237e-06 
-6.565427e-06 
-6.7330484e-06 
-6.9086236e-06 
-7.093012e-06 
-7.286463e-06 
-7.489991e-06 
-7.704658e-06 
-7.930304e-06 
-8.165895e-06 
-8.411507e-06 
-8.667905e-06 
-8.934317e-06 
-9.210073e-06 
-9.495499e-06 
-9.790242e-06 
-1.0092854e-05 
-1.0403205e-05 
-1.0721485e-05 
-1.1045795e-05 
-1.1374619e-05 
-1.1707221e-05 
-1.2044084e-05 
-1.2384681e-05 
-1.2726871e-05 
-1.3069818e-05 
-1.3412409e-05 
-1.3753596e-05 
-1.4093061e-05 
-1.44301175e-05 
-1.476264e-05 
-1.50896785e-05 
-1.5413007e-05 
-1.5730686e-05 
-1.6041597e-05 
-1.634522e-05 
-1.6640493e-05 
-1.6927288e-05 
-1.7206155e-05 
-1.7477507e-05 
-1.773977e-05 
-1.7992938e-05 
-1.8238059e-05 
-1.8474531e-05 
-1.8702207e-05 
-1.892218e-05 
-1.9135538e-05 
-1.9341269e-05 
-1.95403e-05 
-1.973439e-05 
-1.9924619e-05 
-2.0110134e-05 
-2.0290865e-05 
-2.046898e-05 
-2.0645895e-05 
-2.0821679e-05 
-2.09984e-05 
-2.1177988e-05 
-2.1358892e-05 
-2.1542342e-05 
-2.1729353e-05 
-2.1920649e-05 
-2.2118522e-05 
-2.2322745e-05 
-2.2533679e-05 
-2.2752867e-05 
-2.2981345e-05 
-2.3218156e-05 
-2.3463497e-05 
-2.3718143e-05 
-2.3983133e-05 
-2.4258958e-05 
-2.4545649e-05 
-2.4843035e-05 
-2.5150242e-05 
-2.5467147e-05 
-2.5794185e-05 
-2.6130394e-05 
-2.6476171e-05 
-2.6831265e-05 
-2.7194013e-05 
-2.7564858e-05 
-2.7943392e-05 
-2.8327497e-05 
-2.8716091e-05 
-2.910899e-05 
-2.9506562e-05 
-2.9907605e-05 
-3.0310599e-05 
-3.0714386e-05 
-3.1118896e-05 
-3.1523137e-05 
-3.1925407e-05 
-3.2325825e-05 
-3.272331e-05 
-3.3117143e-05 
-3.3507185e-05 
-3.389278e-05 
-3.4273675e-05 
-3.4648518e-05 
-3.50158e-05 
-3.5376594e-05 
-3.5731297e-05 
-3.607964e-05 
-3.642176e-05 
-3.6756774e-05 
-3.7085047e-05 
-3.7407004e-05 
-3.772259e-05 
-3.803218e-05 
-3.8336973e-05 
-3.8637296e-05 
-3.893265e-05 
-3.922518e-05 
-3.95159e-05 
-3.980354e-05 
-4.0089384e-05 
-4.0374664e-05 
-4.0660943e-05 
-4.094907e-05 
-4.1240004e-05 
-4.153381e-05 
-4.183093e-05 
-4.2133033e-05 
-4.244085e-05 
-4.275529e-05 
-4.3077565e-05 
-4.3407075e-05 
-4.3745007e-05 
-4.409343e-05 
-4.445185e-05 
-4.4819626e-05 
-4.519825e-05 
-4.558754e-05 
-4.598789e-05 
-4.6400313e-05 
-4.6824625e-05 
-4.7260117e-05 
-4.770798e-05 
-4.8167363e-05 
-4.8636433e-05 
-4.9116323e-05 
-4.9607523e-05 
-5.0108374e-05 
-5.0618306e-05 
-5.1137744e-05 
-5.1665673e-05 
-5.220015e-05 
-5.274096e-05 
-5.328804e-05 
-5.3840773e-05 
-5.439854e-05 
-5.496029e-05 
-5.5525947e-05 
-5.609433e-05 
-5.6663783e-05 
-5.723358e-05 
-5.780405e-05 
-5.837456e-05 
-5.8943147e-05 
-5.9510778e-05 
-6.0077797e-05 
-6.0642786e-05 
-6.1204715e-05 
-6.176344e-05 
-6.231837e-05 
-6.287082e-05 
-6.342083e-05 
-6.39677e-05 
-6.451249e-05 
-6.505479e-05 
-6.559385e-05 
-6.613132e-05 
-6.666735e-05 
-6.720244e-05 
-6.7736946e-05 
-6.827176e-05 
-6.880813e-05 
-6.934696e-05 
-6.988756e-05 
-7.0430746e-05 
-7.0977745e-05 
-7.1530136e-05 
-7.2089104e-05 
-7.265533e-05 
-7.3229385e-05 
-7.381163e-05 
-7.4402924e-05 
-7.500425e-05 
-7.5616284e-05 
-7.624009e-05 
-7.687643e-05 
-7.7525896e-05 
-7.818828e-05 
-7.886639e-05 
-7.955774e-05 
-8.026215e-05 
-8.098249e-05 
-8.1719496e-05 
-8.247199e-05 
-8.324027e-05 
-8.402481e-05 
-8.482473e-05 
-8.563961e-05 
-8.646999e-05 
-8.7315326e-05 
-8.8174864e-05 
-8.904788e-05 
-8.993533e-05 
-9.083729e-05 
-9.1752656e-05 
-9.26787e-05 
-9.3615905e-05 
-9.4563344e-05 
-9.552391e-05 
-9.649503e-05 
-9.7474636e-05 
-9.846326e-05 
-9.946045e-05 
-0.000100464866 
-0.00010147652 
-0.00010249505 
-0.00010351945 
-0.00010454917 
-0.000105585306 
-0.00010662822 
-0.000107675834 
-0.0001087277 
-0.00010978498 
-0.00011084745 
-0.00011191506 
-0.00011298869 
-0.00011406894 
-0.000115154915 
-0.00011624722 
-0.00011734687 
-0.00011845393 
-0.0001195692 
-0.00012069292 
-0.000121826444 
-0.00012297086 
-0.00012412648 
-0.00012529494 
-0.00012647513 
-0.00012766832 
-0.00012887662 
-0.00013010197 
-0.00013134537 
-0.000132606 
-0.00013388516 
-0.0001351843 
-0.00013650312 
-0.0001378428 
-0.00013920596 
-0.00014059166 
-0.00014200016 
-0.00014343452 
-0.00014489455 
-0.00014638079 
-0.00014789173 
-0.00014942819 
-0.0001509926 
-0.00015258479 
-0.00015420523 
-0.00015585376 
-0.00015753093 
-0.00015923673 
-0.00016096933 
-0.00016273088 
-0.00016452093 
-0.00016633818 
-0.00016818359 
-0.00017005665 
-0.00017195738 
-0.00017388668 
-0.0001758429 
-0.00017782356 
-0.00017983132 
-0.00018186659 
-0.00018392851 
-0.00018601706 
-0.00018813115 
-0.00019027121 
-0.00019243728 
-0.00019462833 
-0.00019684577 
-0.0001990897 
-0.00020135817 
-0.00020365299 
-0.00020597492 
-0.00020832403 
-0.00021070027 
-0.00021310354 
-0.00021553531 
-0.00021799684 
-0.00022049004 
-0.00022301455 
-0.00022557 
-0.0002281583 
-0.00023078031 
-0.00023343741 
-0.00023613144 
-0.00023886278 
-0.00024163246 
-0.00024444272 
-0.00024729484 
-0.0002501914 
-0.00025313173 
-0.0002561166 
-0.0002591499 
-0.00026223378 
-0.00026536902 
-0.00026855705 
-0.0002717997 
-0.00027509758 
-0.00027845154 
-0.00028186524 
-0.0002853399 
-0.00028887566 
-0.0002924738 
-0.00029613462 
-0.00029986355 
-0.00030366253 
-0.00030752696 
-0.00031146154 
-0.00031546978 
-0.00031954914 
-0.00032370473 
-0.00032793748 
-0.0003322439 
-0.0003366272 
-0.00034109267 
-0.00034563904 
-0.00035026597 
-0.00035497427 
-0.0003597665 
-0.0003646462 
-0.00036961597 
-0.00037467293 
-0.0003798162 
-0.0003850507 
-0.00039038027 
-0.00039580493 
-0.00040132733 
-0.0004069495 
-0.00041267203 
-0.0004184986 
-0.0004244302 
-0.00043046876 
-0.00043661767 
-0.00044288114 
-0.00044926142 
-0.00045576078 
-0.00046238373 
-0.00046913436 
-0.00047601404 
-0.00048302714 
-0.0004901786 
-0.0004974733 
-0.0005049162 
-0.000512511 
-0.00052026176 
-0.0005281741 
-0.000536253 
-0.00054450444 
-0.00055293465 
-0.00056154997 
-0.0005703567 
-0.00057935977 
-0.00058856653 
-0.000597984 
-0.00060762046 
-0.0006174832 
-0.0006275781 
-0.0006379162 
-0.00064850575 
-0.0006593546 
-0.0006704709 
-0.0006818651 
-0.0006935473 
-0.00070552726 
-0.0007178163 
-0.0007304242 
-0.00074336206 
-0.0007566442 
-0.000770284 
-0.00078429404 
-0.0007986861 
-0.0008134747 
-0.00082867633 
-0.0008443098 
-0.0008603929 
-0.0008769399 
-0.00089397014 
-0.00091150485 
-0.0009295635 
-0.0009481711 
-0.0009673518 
-0.0009871296 
-0.0010075329 
-0.0010285913 
-0.0010503352 
-0.0010727951 
-0.001096 
-0.0011199752 
-0.001144745 
-0.0011703398 
-0.0011968338 
-0.001224395 
-0.0012533306 
-0.001284056 
-0.001316847 
-0.0013511782 
-0.0013846301 
-0.0014118161 
-0.0014426179 
-0.0014770167 
-0.0015149573 
-0.0015563283 
-0.0016009514 
-0.001648617 
-0.0016990895 
-0.001752136 
-0.0018075424 
-0.0018651478 
-0.001924878 