# OOMMF: rectangular mesh v1.0
# Segment count: 1
# Begin: Segment
# Begin: Header
# Desc: Time (s) :  3.0000005274711574e-07
# Title: m_y
# meshtype: rectangular
# meshunit: m
# xbase: 1.9999999999999997e-09
# ybase: 1.9999999999999997e-09
# zbase: 2.5e-09
# xstepsize: 3.9999999999999994e-09
# ystepsize: 3.9999999999999994e-09
# zstepsize: 5e-09
# xmin: 0
# ymin: 0
# zmin: 0
# xmax: 4e-06
# ymax: 1e-06
# zmax: 5e-09
# xnodes: 1000
# ynodes: 250
# znodes: 1
# ValueRangeMinMag: 1e-08
# ValueRangeMaxMag: 1
# valueunit: 
# valuemultiplier: 1
# End: Header
# Begin: Data Text
0.042642172 
0.02825642 
0.018454116 
0.013088262 
0.010512165 
0.009478593 
0.009163489 
0.009091047 
0.009018677 
0.00884204 
0.008535078 
0.008111512 
0.0076016337 
0.0070398073 
0.0064586736 
0.0058866134 
0.0053463555 
0.0048539415 
0.004418312 
0.0040419325 
0.0037223848 
0.0034543958 
0.0032315713 
0.0030473717 
0.002895362 
0.002769201 
0.002662783 
0.0025706273 
0.002488296 
0.0024125848 
0.002341409 
0.002273465 
0.002207884 
0.0021440338 
0.0020814769 
0.0020200459 
0.0019598552 
0.0019012028 
0.0018444229 
0.0017897487 
0.0017372624 
0.0016869467 
0.0016387729 
0.0015927313 
0.0015488347 
0.001507064 
0.0014673265 
0.0014294641 
0.0013933004 
0.0013586826 
0.0013255026 
0.0012936938 
0.0012631794 
0.0012338717 
0.0012056684 
0.0011784642 
0.0011521864 
0.0011267909 
0.0011022513 
0.0010785478 
0.0010556554 
0.001033533 
0.0010121256 
0.0009913896 
0.0009713027 
0.000951856 
0.0009330387 
0.0009148363 
0.000897227 
0.0008801772 
0.00086365663 
0.0008476436 
0.0008321147 
0.0008170553 
0.00080245343 
0.0007882981 
0.00077457447 
0.00076126144 
0.00074833597 
0.00073577336 
0.000723556 
0.0007116725 
0.0007001069 
0.00068885286 
0.00067790464 
0.00066724484 
0.0006568554 
0.0006467194 
0.0006368193 
0.00062714046 
0.0006176722 
0.00060840877 
0.0005993478 
0.0005904842 
0.00058180705 
0.0005732972 
0.00056493917 
0.0005567268 
0.00054865214 
0.0005407111 
0.0005329066 
0.0005252377 
0.0005176942 
0.0005102724 
0.00050296827 
0.00049576664 
0.0004886606 
0.00048165317 
0.0004747519 
0.00046796174 
0.00046128355 
0.00045470995 
0.000448238 
0.00044186707 
0.0004355919 
0.00042940906 
0.0004233284 
0.00041735946 
0.00041150305 
0.00040576194 
0.0004001386 
0.00039462483 
0.00038921574 
0.00038391165 
0.00037871202 
0.00037362438 
0.00036865968 
0.0003638178 
0.00035909834 
0.0003544983 
0.00035000642 
0.0003456211 
0.00034134177 
0.00033716642 
0.00033310067 
0.00032915076 
0.00032531333 
0.00032158053 
0.00031794145 
0.00031438321 
0.00031090114 
0.0003075006 
0.00030418232 
0.00030094176 
0.0002977796 
0.000294692 
0.0002916657 
0.0002886908 
0.00028575648 
0.00028285585 
0.00027998627 
0.00027715316 
0.00027435817 
0.00027159604 
0.00026885598 
0.00026613206 
0.00026341836 
0.00026070396 
0.00025798753 
0.00025527252 
0.00025255673 
0.00024984346 
0.00024713375 
0.00024441967 
0.00024169806 
0.00023896544 
0.00023621584 
0.00023345552 
0.00023069215 
0.00022792975 
0.00022517018 
0.0002224149 
0.00021966222 
0.00021690581 
0.00021414869 
0.0002113941 
0.00020865112 
0.00020593079 
0.00020323988 
0.00020058277 
0.00019795567 
0.00019535421 
0.00019277952 
0.0001902346 
0.00018772633 
0.00018526507 
0.00018286065 
0.00018051978 
0.00017824012 
0.00017601803 
0.00017384933 
0.00017172527 
0.00016965365 
0.00016764323 
0.00016569912 
0.00016383022 
0.0001620343 
0.00016030329 
0.00015863226 
0.0001570138 
0.0001554404 
0.00015391459 
0.0001524392 
0.00015101767 
0.00014965123 
0.00014833966 
0.00014707279 
0.00014583186 
0.00014461225 
0.00014341294 
0.00014222725 
0.00014105807 
0.00013991074 
0.00013878345 
0.00013766403 
0.00013654436 
0.00013541829 
0.00013427474 
0.0001331096 
0.00013192647 
0.00013072713 
0.00012951203 
0.00012828462 
0.00012703562 
0.00012575423 
0.00012443696 
0.00012308323 
0.000121694095 
0.0001202739 
0.00011882577 
0.00011735561 
0.000115862116 
0.000114341805 
0.00011279368 
0.000111214715 
0.000109608176 
0.000107980675 
0.00010634395 
0.00010470276 
0.00010305699 
0.00010140833 
9.975679e-05 
9.8108525e-05 
9.646334e-05 
9.482939e-05 
9.321402e-05 
9.161864e-05 
9.005002e-05 
8.851815e-05 
8.7013614e-05 
8.5540574e-05 
8.41043e-05 
8.270871e-05 
8.13585e-05 
8.005626e-05 
7.880408e-05 
7.7605335e-05 
7.6456876e-05 
7.535823e-05 
7.4311036e-05 
7.3316114e-05 
7.2371775e-05 
7.147539e-05 
7.063136e-05 
6.984008e-05 
6.909459e-05 
6.838865e-05 
6.7721274e-05 
6.709443e-05 
6.650196e-05 
6.593961e-05 
6.5407316e-05 
6.489823e-05 
6.4406566e-05 
6.3931904e-05 
6.346968e-05 
6.301039e-05 
6.25514e-05 
6.209053e-05 
6.1627536e-05 
6.1156585e-05 
6.0671126e-05 
6.016995e-05 
5.9646147e-05 
5.909622e-05 
5.8522794e-05 
5.7921465e-05 
5.7290486e-05 
5.662758e-05 
5.5930654e-05 
5.5197637e-05 
5.4427644e-05 
5.3622e-05 
5.2782256e-05 
5.1909326e-05 
5.1005954e-05 
5.007466e-05 
4.9112066e-05 
4.8116937e-05 
4.7093665e-05 
4.6048564e-05 
4.4985587e-05 
4.391056e-05 
4.2826177e-05 
4.1731306e-05 
4.063111e-05 
3.9529757e-05 
3.842894e-05 
3.7335652e-05 
3.625362e-05 
3.5189718e-05 
3.4148918e-05 
3.3134107e-05 
3.2144977e-05 
3.1184398e-05 
3.025945e-05 
2.9370263e-05 
2.8517923e-05 
2.7712702e-05 
2.6952617e-05 
2.6238775e-05 
2.5574278e-05 
2.4958154e-05 
2.4390336e-05 
2.3869638e-05 
2.3399065e-05 
2.2976174e-05 
2.2601162e-05 
2.2277094e-05 
2.199948e-05 
2.1760536e-05 
2.1560072e-05 
2.1398186e-05 
2.1268106e-05 
2.116971e-05 
2.1100625e-05 
2.105494e-05 
2.1032238e-05 
2.1024605e-05 
2.1026044e-05 
2.1035858e-05 
2.1046953e-05 
2.1055324e-05 
2.1063332e-05 
2.1064501e-05 
2.1054175e-05 
2.1030075e-05 
2.0985817e-05 
2.0915562e-05 
2.0819047e-05 
2.0697818e-05 
2.054666e-05 
2.0364849e-05 
2.0150472e-05 
1.9900957e-05 
1.9618179e-05 
1.9300367e-05 
1.8944935e-05 
1.8553046e-05 
1.8128432e-05 
1.7671398e-05 
1.7181856e-05 
1.6663698e-05 
1.6118895e-05 
1.5551532e-05 
1.4962706e-05 
1.4354607e-05 
1.3727633e-05 
1.3089244e-05 
1.2442598e-05 
1.1790129e-05 
1.1141266e-05 
1.0497533e-05 
9.858251e-06 
9.229317e-06 
8.616075e-06 
8.023007e-06 
7.450183e-06 
6.9016965e-06 
6.3874754e-06 
5.9087433e-06 
5.464936e-06 
5.0601375e-06 
4.6926634e-06 
4.3651726e-06 
4.0813475e-06 
3.8434446e-06 
3.6514805e-06 
3.5078808e-06 
3.4142827e-06 
3.3661076e-06 
3.3619503e-06 
3.3981212e-06 
3.47533e-06 
3.5941653e-06 
3.7535024e-06 
3.952357e-06 
4.1865715e-06 
4.4499766e-06 
4.7390286e-06 
5.0503295e-06 
5.3798954e-06 
5.725242e-06 
6.0866164e-06 
6.459354e-06 
6.837133e-06 
7.2132075e-06 
7.5846488e-06 
7.94882e-06 
8.300725e-06 
8.635839e-06 
8.954893e-06 
9.255885e-06 
9.531533e-06 
9.779983e-06 
9.998431e-06 
1.0184245e-05 
1.033889e-05 
1.0458834e-05 
1.0539654e-05 
1.0583112e-05 
1.0591537e-05 
1.0563968e-05 
1.0497551e-05 
1.03974535e-05 
1.0261519e-05 
1.0090866e-05 
9.8910805e-06 
9.661673e-06 
9.404885e-06 
9.125236e-06 
8.824157e-06 
8.505171e-06 
8.172088e-06 
7.828623e-06 
7.4767536e-06 
7.1215118e-06 
6.7666265e-06 
6.414414e-06 
6.0707257e-06 
5.7413176e-06 
5.4250577e-06 
5.1255774e-06 
4.8498096e-06 
4.598443e-06 
4.3766413e-06 
4.1865883e-06 
4.0289874e-06 
3.909633e-06 
3.824405e-06 
3.771724e-06 
3.7610603e-06 
3.7935176e-06 
3.866497e-06 
3.9795827e-06 
4.13439e-06 
4.330109e-06 
4.5633096e-06 
4.830312e-06 
5.1323573e-06 
5.468073e-06 
5.8377145e-06 
6.2364315e-06 
6.6567227e-06 
7.0971187e-06 
7.5563944e-06 
8.032564e-06 
8.521162e-06 
9.015229e-06 
9.512907e-06 
1.0011617e-05 
1.0506851e-05 
1.0993463e-05 
1.1468148e-05 
1.1926123e-05 
1.2363437e-05 
1.2781947e-05 
1.3176799e-05 
1.354236e-05 
1.38747155e-05 
1.4175891e-05 
1.44407195e-05 
1.4668484e-05 
1.4859781e-05 
1.5010613e-05 
1.51216345e-05 
1.5191975e-05 
1.5221465e-05 
1.52132025e-05 
1.5164922e-05 
1.50752085e-05 
1.4949589e-05 
1.4791064e-05 
1.460008e-05 
1.4379443e-05 
1.4127279e-05 
1.3848883e-05 
1.3551764e-05 
1.323699e-05 
1.2906177e-05 
1.2561597e-05 
1.2210768e-05 
1.1854113e-05 
1.1495095e-05 
1.1140076e-05 
1.0790967e-05 
1.0451409e-05 
1.0124181e-05 
9.812414e-06 
9.5212245e-06 
9.251572e-06 
9.007223e-06 
8.789857e-06 
8.599308e-06 
8.441483e-06 
8.315958e-06 
8.222802e-06 
8.162895e-06 
8.13507e-06 
8.142828e-06 
8.186264e-06 
8.263272e-06 
8.370121e-06 
8.505774e-06 
8.672043e-06 
8.8685365e-06 
9.088495e-06 
9.3302915e-06 
9.590679e-06 
9.869095e-06 
1.0160382e-05 
1.04602495e-05 
1.07672195e-05 
1.1075385e-05 
1.1382095e-05 
1.1686842e-05 
1.1983701e-05 
1.22679385e-05 
1.2535052e-05 
1.2786113e-05 
1.3014971e-05 
1.321517e-05 
1.339036e-05 
1.3533689e-05 
1.3643506e-05 
1.3718855e-05 
1.3755317e-05 
1.375374e-05 
1.3711479e-05 
1.36250765e-05 
1.3497952e-05 
1.3328373e-05 
1.311855e-05 
1.2865883e-05 
1.2569507e-05 
1.2234588e-05 
1.1861306e-05 
1.1451233e-05 
1.10080655e-05 
1.053103e-05 
1.002152e-05 
9.484432e-06 
8.925499e-06 
8.345939e-06 
7.749352e-06 
7.13671e-06 
6.50994e-06 
5.8756045e-06 
5.2390083e-06 
4.6035875e-06 
3.9688384e-06 
3.3411345e-06 
2.726189e-06 
2.1230348e-06 
1.5335119e-06 
9.60886e-07 
4.0952565e-07 
-1.18089545e-07 
-6.1911044e-07 
-1.0919714e-06 
-1.5367619e-06 
-1.9541044e-06 
-2.342303e-06 
-2.6958571e-06 
-3.0203705e-06 
-3.318206e-06 
-3.5844516e-06 
-3.82031e-06 
-4.0298632e-06 
-4.210867e-06 
-4.3668324e-06 
-4.5035313e-06 
-4.620655e-06 
-4.7204835e-06 
-4.807014e-06 
-4.8805055e-06 
-4.9480027e-06 
-5.0116587e-06 
-5.069497e-06 
-5.129005e-06 
-5.1963348e-06 
-5.2724963e-06 
-5.362719e-06 
-5.468051e-06 
-5.589231e-06 
-5.7335455e-06 
-5.900708e-06 
-6.0955826e-06 
-6.3249895e-06 
-6.5856743e-06 
-6.8801105e-06 
-7.210539e-06 
-7.5779785e-06 
-7.984863e-06 
-8.431597e-06 
-8.917951e-06 
-9.445705e-06 
-1.0015166e-05 
-1.06250745e-05 
-1.1273426e-05 
-1.1958297e-05 
-1.2679948e-05 
-1.3438002e-05 
-1.42307745e-05 
-1.5052245e-05 
-1.5902491e-05 
-1.6778498e-05 
-1.7677125e-05 
-1.859668e-05 
-1.953184e-05 
-2.0479583e-05 
-2.1435519e-05 
-2.2399563e-05 
-2.3369115e-05 
-2.4339019e-05 
-2.5303767e-05 
-2.6259011e-05 
-2.7202645e-05 
-2.8131191e-05 
-2.9049184e-05 
-2.9949582e-05 
-3.082513e-05 
-3.1678235e-05 
-3.2507156e-05 
-3.330768e-05 
-3.4078545e-05 
-3.4821176e-05 
-3.5531983e-05 
-3.6212736e-05 
-3.6863672e-05 
-3.74854e-05 
-3.807672e-05 
-3.8635037e-05 
-3.916707e-05 
-3.967409e-05 
-4.015634e-05 
-4.0613493e-05 
-4.1049585e-05 
-4.1471656e-05 
-4.18762e-05 
-4.2265478e-05 
-4.2647596e-05 
-4.302445e-05 
-4.3394684e-05 
-4.376358e-05 
-4.4137425e-05 
-4.4520883e-05 
-4.4912656e-05 
-4.5314744e-05 
-4.5731576e-05 
-4.616467e-05 
-4.6624664e-05 
-4.7108726e-05 
-4.761729e-05 
-4.8155423e-05 
-4.8724556e-05 
-4.9325216e-05 
-4.9958733e-05 
-5.0627437e-05 
-5.1330888e-05 
-5.2068866e-05 
-5.284602e-05 
-5.3659496e-05 
-5.4506665e-05 
-5.538904e-05 
-5.6304267e-05 
-5.7250145e-05 
-5.8227964e-05 
-5.923584e-05 
-6.027041e-05 
-6.1327875e-05 
-6.241025e-05 
-6.3509986e-05 
-6.462312e-05 
-6.5751636e-05 
-6.688995e-05 
-6.803297e-05 
-6.9182446e-05 
-7.033365e-05 
-7.1477596e-05 
-7.261517e-05 
-7.374498e-05 
-7.486318e-05 
-7.5967415e-05 
-7.705273e-05 
-7.812037e-05 
-7.9166086e-05 
-8.018306e-05 
-8.117511e-05 
-8.2141836e-05 
-8.307994e-05 
-8.3986844e-05 
-8.4863044e-05 
-8.5711465e-05 
-8.653254e-05 
-8.732071e-05 
-8.8076944e-05 
-8.8806075e-05 
-8.950768e-05 
-9.018451e-05 
-9.083791e-05 
-9.146772e-05 
-9.207899e-05 
-9.267326e-05 
-9.325184e-05 
-9.3819806e-05 
-9.437864e-05 
-9.493097e-05 
-9.548127e-05 
-9.6032505e-05 
-9.658871e-05 
-9.7148564e-05 
-9.7715456e-05 
-9.82956e-05 
-9.889422e-05 
-9.9513134e-05 
-0.00010015203 
-0.00010081501 
-0.00010150436 
-0.00010222119 
-0.00010296631 
-0.00010374489 
-0.00010455817 
-0.000105404746 
-0.00010628275 
-0.00010719491 
-0.00010814788 
-0.000109132394 
-0.000110149784 
-0.00011120299 
-0.000112291746 
-0.000113412934 
-0.00011456492 
-0.00011574247 
-0.00011694528 
-0.00011817622 
-0.000119430675 
-0.00012070428 
-0.00012199477 
-0.00012329844 
-0.00012461019 
-0.00012593366 
-0.00012726703 
-0.00012860149 
-0.00012993274 
-0.00013126229 
-0.00013258797 
-0.00013390898 
-0.00013522056 
-0.00013651773 
-0.00013780147 
-0.00013907086 
-0.00014031997 
-0.00014155169 
-0.00014276535 
-0.00014395396 
-0.00014512286 
-0.00014627531 
-0.00014740667 
-0.00014851459 
-0.00014960201 
-0.00015066986 
-0.00015172144 
-0.00015275877 
-0.00015378166 
-0.00015479275 
-0.00015579234 
-0.00015678274 
-0.0001577701 
-0.00015875782 
-0.00015974478 
-0.00016073424 
-0.00016173032 
-0.00016273708 
-0.0001637596 
-0.00016479833 
-0.00016585395 
-0.00016693074 
-0.00016803552 
-0.00016917007 
-0.00017033565 
-0.00017153576 
-0.00017277242 
-0.00017404866 
-0.0001753648 
-0.00017672675 
-0.00017813138 
-0.00017958126 
-0.00018107698 
-0.00018262169 
-0.00018421595 
-0.00018585676 
-0.00018754411 
-0.00018927967 
-0.00019106768 
-0.00019290266 
-0.00019478082 
-0.00019670722 
-0.00019867602 
-0.00020068619 
-0.00020273842 
-0.00020482748 
-0.00020695287 
-0.00020911382 
-0.00021130613 
-0.00021353146 
-0.00021578604 
-0.00021806236 
-0.00022036345 
-0.00022268687 
-0.00022503061 
-0.00022739745 
-0.00022978197 
-0.00023217955 
-0.00023459217 
-0.00023701979 
-0.00023945954 
-0.00024191059 
-0.0002443735 
-0.00024684836 
-0.00024933496 
-0.0002518363 
-0.0002543526 
-0.00025688147 
-0.00025942447 
-0.00026198383 
-0.0002645654 
-0.00026717238 
-0.00026980246 
-0.00027245996 
-0.00027514956 
-0.00027786818 
-0.00028062196 
-0.00028341674 
-0.00028625425 
-0.00028913948 
-0.00029207612 
-0.00029506697 
-0.0002981162 
-0.00030122287 
-0.00030439344 
-0.00030763485 
-0.0003109501 
-0.00031434314 
-0.00031781488 
-0.00032136927 
-0.00032501112 
-0.00032874465 
-0.0003325685 
-0.00033648778 
-0.00034050547 
-0.00034462084 
-0.000348841 
-0.0003531716 
-0.00035760683 
-0.00036214472 
-0.0003667907 
-0.00037155257 
-0.000376429 
-0.00038141865 
-0.0003865251 
-0.00039174643 
-0.00039708408 
-0.00040253898 
-0.00040810887 
-0.00041379716 
-0.00041960552 
-0.00042553505 
-0.0004315881 
-0.00043776468 
-0.0004440648 
-0.0004504871 
-0.00045703579 
-0.00046371526 
-0.00047052707 
-0.00047747247 
-0.00048455337 
-0.0004917729 
-0.00049913547 
-0.0005066413 
-0.0005142978 
-0.0005221095 
-0.000530081 
-0.00053821737 
-0.00054652255 
-0.000555002 
-0.00056366436 
-0.00057251763 
-0.00058156985 
-0.00059083046 
-0.00060030504 
-0.00061000435 
-0.0006199376 
-0.0006301146 
-0.0006405476 
-0.0006512466 
-0.000662222 
-0.0006734871 
-0.0006850555 
-0.00069693953 
-0.0007091548 
-0.000721716 
-0.00073463644 
-0.0007479313 
-0.00076161756 
-0.0007757127 
-0.0007902381 
-0.0008052123 
-0.00082065305 
-0.00083657826 
-0.0008530126 
-0.00086997676 
-0.00088749384 
-0.00090559013 
-0.00092428864 
-0.0009436208 
-0.00096361287 
-0.0009843017 
-0.0010057186 
-0.0010278905 
-0.0010508533 
-0.0010746539 
-0.0010993365 
-0.0011249438 
-0.0011515198 
-0.0011791147 
-0.001207783 
-0.0012375849 
-0.0012685829 
-0.0013008487 
-0.0013344516 
-0.0013694664 
-0.001405982 
-0.0014440933 
-0.001483903 
-0.0015255163 
-0.0015690535 
-0.0016146508 
-0.0016624494 
-0.0017126084 
-0.001765306 
-0.0018207361 
-0.0018791102 
-0.0019406659 
-0.0020056702 
-0.0020744242 
-0.0021472562 
-0.0022245375 
-0.0023066974 
-0.0023942206 
-0.0024876408 
-0.002587573 
-0.0026947316 
-0.0028099425 
-0.0029341565 
-0.0030684762 
-0.0032141968 
-0.0033728473 
-0.0035462524 
-0.003736589 
-0.003946495 
-0.0041791946 
-0.0044386694 
-0.004729902 
-0.005059226 
-0.005434824 
-0.005867458 
-0.006371617 
-0.006967316 
-0.00768295 
-0.008560018 
-0.009661117 
-0.011083559 
-0.012982975 
-0.015613937 
-0.01939931 
-0.025045011 
-0.033667933 
-0.046697922 
-0.06373024 
0.029318755 
0.022137646 
0.015830122 
0.011978491 
0.01009099 
0.00939962 
0.009268635 
0.009299206 
0.009283006 
0.009133076 
0.008833361 
0.008404054 
0.0078799995 
0.0072989743 
0.0066962466 
0.0061022034 
0.0055410005 
0.005029583 
0.0045773597 
0.004186899 
0.0038556645 
0.0035781576 
0.0033477023 
0.0031574625 
0.003000688 
0.0028707376 
0.002761218 
0.002666411 
0.0025816914 
0.0025037313 
0.0024303717 
0.0023602666 
0.002292519 
0.002226479 
0.0021617082 
0.0020980455 
0.002035624 
0.0019747724 
0.0019158483 
0.0018590952 
0.001804603 
0.0017523535 
0.0017023183 
0.0016545004 
0.0016089116 
0.0015655324 
0.0015242648 
0.0014849459 
0.0014473923 
0.0014114428 
0.0013769874 
0.0013439478 
0.0013122523 
0.001281811 
0.0012525145 
0.0012242575 
0.0011969612 
0.001170579 
0.001145085 
0.0011204579 
0.0010966704 
0.0010736778 
0.001051431 
0.0010298864 
0.0010090169 
0.0009888108 
0.00096925825 
0.00095034525 
0.00093204447 
0.0009143239 
0.0008971574 
0.0008805197 
0.0008643859 
0.0008487425 
0.0008335777 
0.00081887504 
0.00080461946 
0.0007907881 
0.00077735726 
0.00076430873 
0.0007516244 
0.0007392871 
0.0007272825 
0.0007155981 
0.0007042258 
0.0006931554 
0.0006823691 
0.0006718448 
0.0006615658 
0.00065151916 
0.0006416923 
0.0006320785 
0.0006226722 
0.0006134698 
0.0006044561 
0.0005956175 
0.00058694085 
0.00057841436 
0.0005700319 
0.0005617889 
0.0005536842 
0.00054571626 
0.00053787715 
0.0005301646 
0.0005225699 
0.00051508355 
0.0005077018 
0.00050042104 
0.000493245 
0.00048618144 
0.00047923258 
0.0004723939 
0.00046566053 
0.00045903015 
0.00045250118 
0.00044607255 
0.0004397497 
0.00043353697 
0.00042743774 
0.00042145903 
0.0004156011 
0.0004098592 
0.00040423113 
0.00039871183 
0.00039330206 
0.00038800912 
0.0003828411 
0.00037780005 
0.0003728852 
0.0003680964 
0.00036342564 
0.00035886533 
0.00035441655 
0.0003500777 
0.0003458521 
0.00034174585 
0.0003377551 
0.00033387248 
0.00033009157 
0.00032640193 
0.00032279536 
0.00031927103 
0.00031582935 
0.0003124689 
0.00030918996 
0.0003059864 
0.00030284724 
0.00029976456 
0.00029672554 
0.00029372497 
0.0002907607 
0.00028783083 
0.00028493567 
0.0002820735 
0.00027923557 
0.0002764138 
0.00027360223 
0.00027079243 
0.00026798068 
0.00026516907 
0.00026235505 
0.0002595407 
0.00025672783 
0.00025391154 
0.0002510857 
0.00024824822 
0.00024539567 
0.00024252837 
0.00023965508 
0.00023678136 
0.00023390862 
0.00023103907 
0.00022817064 
0.00022530065 
0.00022243292 
0.00021956628 
0.00021670866 
0.00021387108 
0.00021106236 
0.00020828754 
0.00020554432 
0.00020283066 
0.0002001465 
0.00019749308 
0.00019487861 
0.00019231188 
0.00018980233 
0.0001873548 
0.00018497258 
0.00018265154 
0.00018038787 
0.0001781782 
0.00017602387 
0.00017393152 
0.00017190857 
0.00016996011 
0.00016808603 
0.00016628206 
0.00016454337 
0.00016286166 
0.00016123043 
0.00015965012 
0.00015812366 
0.00015665361 
0.00015523902 
0.00015387854 
0.00015256394 
0.00015128298 
0.0001500271 
0.00014879265 
0.0001475749 
0.00014637422 
0.00014519373 
0.0001440293 
0.00014287402 
0.00014172078 
0.00014056139 
0.00013938632 
0.00013818941 
0.00013697309 
0.00013573887 
0.00013448772 
0.00013321644 
0.00013192117 
0.00013059765 
0.00012923594 
0.00012783466 
0.00012639715 
0.00012492712 
0.00012342638 
0.00012189658 
0.000120341036 
0.00011875886 
0.00011714509 
0.00011550044 
0.00011382928 
0.000112135946 
0.000110427805 
0.00010871271 
0.000106992935 
0.00010526902 
0.00010354276 
0.000101819685 
0.00010010058 
9.8392564e-05 
9.670177e-05 
9.503307e-05 
9.339153e-05 
9.178494e-05 
9.020915e-05 
8.866891e-05 
8.7167544e-05 
8.570879e-05 
8.4295854e-05 
8.293357e-05 
8.162374e-05 
8.036844e-05 
7.9168705e-05 
7.80231e-05 
7.6931596e-05 
7.589454e-05 
7.490945e-05 
7.397847e-05 
7.310265e-05 
7.227853e-05 
7.150488e-05 
7.077712e-05 
7.009163e-05 
6.9445676e-05 
6.8834845e-05 
6.8257636e-05 
6.771184e-05 
6.719178e-05 
6.6693094e-05 
6.6211374e-05 
6.574052e-05 
6.5273794e-05 
6.480772e-05 
6.4342494e-05 
6.387344e-05 
6.339363e-05 
6.290253e-05 
6.2393236e-05 
6.185959e-05 
6.129962e-05 
6.0711547e-05 
6.009408e-05 
5.9447768e-05 
5.8766895e-05 
5.8048452e-05 
5.7292957e-05 
5.6498633e-05 
5.5664583e-05 
5.479312e-05 
5.3886295e-05 
5.2946918e-05 
5.1977215e-05 
5.097373e-05 
4.9937844e-05 
4.8871003e-05 
4.777893e-05 
4.6669295e-05 
4.5544308e-05 
4.4406144e-05 
4.3260443e-05 
4.2108284e-05 
4.095345e-05 
3.979933e-05 
3.8652644e-05 
3.7519112e-05 
3.6402747e-05 
3.530915e-05 
3.4241704e-05 
3.320145e-05 
3.2193595e-05 
3.1221756e-05 
3.0287338e-05 
2.9394252e-05 
2.854755e-05 
2.7750146e-05 
2.7001437e-05 
2.630345e-05 
2.56573e-05 
2.5062236e-05 
2.4519899e-05 
2.4028832e-05 
2.3588891e-05 
2.3200573e-05 
2.2864235e-05 
2.2575918e-05 
2.2331675e-05 
2.2129578e-05 
2.1964834e-05 
2.1837397e-05 
2.1743233e-05 
2.1679787e-05 
2.1641192e-05 
2.1626236e-05 
2.1629145e-05 
2.1642794e-05 
2.166432e-05 
2.1687016e-05 
2.1708465e-05 
2.1728514e-05 
2.1743032e-05 
2.174555e-05 
2.1729322e-05 
2.1693746e-05 
2.1634298e-05 
2.1545296e-05 
2.142703e-05 
2.1279391e-05 
2.109814e-05 
2.0881926e-05 
2.0631538e-05 
2.034378e-05 
2.0016927e-05 
1.9649937e-05 
1.924397e-05 
1.8802984e-05 
1.8328208e-05 
1.7819872e-05 
1.7280852e-05 
1.6712182e-05 
1.6117072e-05 
1.5499496e-05 
1.486011e-05 
1.4200961e-05 
1.353024e-05 
1.2852582e-05 
1.2167125e-05 
1.1480595e-05 
1.0800362e-05 
1.0127374e-05 
9.463774e-06 
8.8170655e-06 
8.190171e-06 
7.5855332e-06 
7.0078395e-06 
6.4606597e-06 
5.9512486e-06 
5.4816087e-06 
5.052159e-06 
4.664091e-06 
4.3180844e-06 
4.018013e-06 
3.766121e-06 
3.5620649e-06 
3.4101452e-06 
3.3105105e-06 
3.2584064e-06 
3.252559e-06 
3.2915434e-06 
3.3754309e-06 
3.503955e-06 
3.6748725e-06 
3.8851203e-06 
4.133978e-06 
4.4157077e-06 
4.724984e-06 
5.0580666e-06 
5.4113602e-06 
5.7818615e-06 
6.1690494e-06 
6.5671034e-06 
6.969335e-06 
7.3734554e-06 
7.772777e-06 
8.163002e-06 
8.541937e-06 
8.90367e-06 
9.247901e-06 
9.571963e-06 
9.869959e-06 
1.0139088e-05 
1.0376525e-05 
1.0579466e-05 
1.07460655e-05 
1.087728e-05 
1.0968667e-05 
1.1020486e-05 
1.103407e-05 
1.1009358e-05 
1.0944582e-05 
1.0841071e-05 
1.0700792e-05 
1.0523766e-05 
1.0312791e-05 
1.0071427e-05 
9.801266e-06 
9.504915e-06 
9.1866905e-06 
8.85071e-06 
8.498251e-06 
8.132346e-06 
7.759402e-06 
7.3819515e-06 
7.003241e-06 
6.6281764e-06 
6.262055e-06 
5.9087365e-06 
5.5714336e-06 
5.2528944e-06 
4.956168e-06 
4.6858418e-06 
4.4465082e-06 
4.240993e-06 
4.07045e-06 
3.936119e-06 
3.8412245e-06 
3.786346e-06 
3.7725206e-06 
3.8016246e-06 
3.8745147e-06 
3.9912707e-06 
4.1524995e-06 
4.3564487e-06 
4.5990378e-06 
4.880235e-06 
5.1994866e-06 
5.5551395e-06 
5.9446434e-06 
6.363205e-06 
6.8084423e-06 
7.27774e-06 
7.7660525e-06 
8.269251e-06 
8.786325e-06 
9.313452e-06 
9.843084e-06 
1.0372669e-05 
1.0899345e-05 
1.1417456e-05 
1.1922627e-05 
1.24118815e-05 
1.2880906e-05 
1.3328438e-05 
1.3748573e-05 
1.413746e-05 
1.4494491e-05 
1.4819245e-05 
1.5104364e-05 
1.534749e-05 
1.555344e-05 
1.5718793e-05 
1.5839389e-05 
1.5917414e-05 
1.5952075e-05 
1.594452e-05 
1.5894906e-05 
1.580393e-05 
1.5674554e-05 
1.5508307e-05 
1.5306476e-05 
1.5072866e-05 
1.480683e-05 
1.4513446e-05 
1.4199039e-05 
1.3863256e-05 
1.3511433e-05 
1.3148224e-05 
1.2773964e-05 
1.2393122e-05 
1.2012841e-05 
1.1634885e-05 
1.1263356e-05 
1.0900976e-05 
1.0551485e-05 
1.0218728e-05 
9.9077015e-06 
9.620301e-06 
9.357931e-06 
9.124569e-06 
8.920295e-06 
8.749258e-06 
8.61469e-06 
8.514808e-06 
8.4489775e-06 
8.418276e-06 
8.426916e-06 
8.471285e-06 
8.5495185e-06 
8.6625705e-06 
8.8093475e-06 
8.9871655e-06 
9.193999e-06 
9.427264e-06 
9.685969e-06 
9.965683e-06 
1.0262207e-05 
1.0573523e-05 
1.0894634e-05 
1.1223152e-05 
1.1555823e-05 
1.18871485e-05 
1.2214555e-05 
1.2534093e-05 
1.2841301e-05 
1.31322295e-05 
1.34026095e-05 
1.3651142e-05 
1.3872692e-05 
1.406505e-05 
1.4223948e-05 
1.434749e-05 
1.4433471e-05 
1.44821925e-05 
1.44879805e-05 
1.4448197e-05 
1.4366304e-05 
1.4239452e-05 
1.4066303e-05 
1.3848012e-05 
1.3586784e-05 
1.3282577e-05 
1.29351165e-05 
1.2545439e-05 
1.2117299e-05 
1.1652517e-05 
1.1150472e-05 
1.0617231e-05 
1.0054091e-05 
9.465722e-06 
8.857663e-06 
8.226685e-06 
7.5796543e-06 
6.922474e-06 
6.2553563e-06 
5.58293e-06 
4.9126693e-06 
4.2447696e-06 
3.583398e-06 
2.9335295e-06 
2.2959443e-06 
1.6748077e-06 
1.0722048e-06 
4.9050567e-07 
-6.554072e-08 
-5.929512e-07 
-1.0905538e-06 
-1.5589478e-06 
-1.9969389e-06 
-2.4028056e-06 
-2.7746103e-06 
-3.1141908e-06 
-3.4223594e-06 
-3.699499e-06 
-3.944443e-06 
-4.1589597e-06 
-4.3453642e-06 
-4.5050965e-06 
-4.643016e-06 
-4.7587705e-06 
-4.854757e-06 
-4.9364658e-06 
-5.0062476e-06 
-5.067573e-06 
-5.1236552e-06 
-5.176025e-06 
-5.2281084e-06 
-5.2871223e-06 
-5.3576696e-06 
-5.4396146e-06 
-5.537228e-06 
-5.6550284e-06 
-5.7949446e-06 
-5.959683e-06 
-6.15454e-06 
-6.382095e-06 
-6.6447196e-06 
-6.943437e-06 
-7.2809385e-06 
-7.656377e-06 
-8.073063e-06 
-8.533893e-06 
-9.038534e-06 
-9.58514e-06 
-1.0174071e-05 
-1.0807204e-05 
-1.1481048e-05 
-1.2195249e-05 
-1.2949596e-05 
-1.37407e-05 
-1.4567116e-05 
-1.542564e-05 
-1.6316075e-05 
-1.7234439e-05 
-1.8175475e-05 
-1.9138832e-05 
-2.0119543e-05 
-2.1115125e-05 
-2.2120168e-05 
-2.31313e-05 
-2.4146811e-05 
-2.5164574e-05 
-2.6177759e-05 
-2.7180891e-05 
-2.8172497e-05 
-2.9151453e-05 
-3.0113095e-05 
-3.1055184e-05 
-3.197594e-05 
-3.287064e-05 
-3.373853e-05 
-3.4577974e-05 
-3.5384815e-05 
-3.6161047e-05 
-3.6905138e-05 
-3.761765e-05 
-3.829683e-05 
-3.894289e-05 
-3.9556322e-05 
-4.0137616e-05 
-4.069097e-05 
-4.1215848e-05 
-4.17119e-05 
-4.218389e-05 
-4.2635045e-05 
-4.3065855e-05 
-4.347935e-05 
-4.387889e-05 
-4.426827e-05 
-4.465036e-05 
-4.502783e-05 
-4.5403434e-05 
-4.578373e-05 
-4.6171783e-05 
-4.6568868e-05 
-4.697815e-05 
-4.7403755e-05 
-4.7848356e-05 
-4.8315633e-05 
-4.880864e-05 
-4.933187e-05 
-4.9885224e-05 
-5.04691e-05 
-5.1087554e-05 
-5.174162e-05 
-5.2432508e-05 
-5.3160227e-05 
-5.3924912e-05 
-5.4731383e-05 
-5.5576467e-05 
-5.6457346e-05 
-5.7375415e-05 
-5.832864e-05 
-5.931552e-05 
-6.0336966e-05 
-6.138947e-05 
-6.247007e-05 
-6.357705e-05 
-6.470672e-05 
-6.5856395e-05 
-6.702449e-05 
-6.8205976e-05 
-6.9396716e-05 
-7.059511e-05 
-7.17992e-05 
-7.300415e-05 
-7.420411e-05 
-7.539736e-05 
-7.658091e-05 
-7.7751894e-05 
-7.890875e-05 
-8.004777e-05 
-8.116441e-05 
-8.225769e-05 
-8.33237e-05 
-8.436199e-05 
-8.5372594e-05 
-8.635209e-05 
-8.729993e-05 
-8.8216286e-05 
-8.91e-05 
-8.995322e-05 
-9.077285e-05 
-9.155877e-05 
-9.2315546e-05 
-9.304365e-05 
-9.374355e-05 
-9.4420364e-05 
-9.507209e-05 
-9.570143e-05 
-9.631271e-05 
-9.690796e-05 
-9.74907e-05 
-9.806378e-05 
-9.8629505e-05 
-9.919177e-05 
-9.9756755e-05 
-0.00010032356 
-0.00010089529 
-0.000101477635 
-0.000102073966 
-0.00010268767 
-0.00010332149 
-0.000103977145 
-0.000104656545 
-0.0001053657 
-0.0001061047 
-0.00010687307 
-0.000107676635 
-0.00010851617 
-0.000109389905 
-0.00011030074 
-0.00011125 
-0.00011223499 
-0.00011325681 
-0.00011431645 
-0.00011541111 
-0.00011654512 
-0.00011771261 
-0.00011891071 
-0.00012013915 
-0.00012139659 
-0.00012268042 
-0.00012398823 
-0.000125319 
-0.00012666732 
-0.00012802868 
-0.00012940267 
-0.00013078615 
-0.00013217743 
-0.00013357204 
-0.00013496382 
-0.00013635388 
-0.00013774165 
-0.00013912075 
-0.00014048984 
-0.00014184539 
-0.00014318571 
-0.00014450998 
-0.00014581546 
-0.00014709894 
-0.00014836172 
-0.00014960316 
-0.0001508222 
-0.00015201782 
-0.00015319325 
-0.00015434604 
-0.00015547362 
-0.00015658088 
-0.00015767124 
-0.00015874472 
-0.00015980295 
-0.00016084836 
-0.00016188176 
-0.00016290642 
-0.0001639249 
-0.00016494043 
-0.00016595625 
-0.000166976 
-0.00016800336 
-0.00016904133 
-0.00017009207 
-0.00017116076 
-0.0001722486 
-0.00017335861 
-0.00017449618 
-0.00017566634 
-0.00017686907 
-0.00017810769 
-0.0001793849 
-0.00018070225 
-0.00018206428 
-0.00018347269 
-0.00018492434 
-0.00018642588 
-0.00018797786 
-0.00018957937 
-0.00019123139 
-0.00019293281 
-0.00019468587 
-0.00019649176 
-0.00019834901 
-0.00020025547 
-0.00020221078 
-0.00020421456 
-0.00020626184 
-0.00020835361 
-0.00021049043 
-0.00021266786 
-0.00021488202 
-0.00021713073 
-0.00021941468 
-0.00022173396 
-0.00022408251 
-0.00022645484 
-0.00022885173 
-0.00023127337 
-0.00023371616 
-0.00023617937 
-0.00023866098 
-0.00024115758 
-0.00024366859 
-0.00024619352 
-0.00024873292 
-0.00025128352 
-0.0002538433 
-0.00025641551 
-0.00025900203 
-0.00026160068 
-0.000264213 
-0.00026683963 
-0.00026948014 
-0.00027213997 
-0.0002748197 
-0.00027752106 
-0.00028024902 
-0.00028300477 
-0.00028579103 
-0.0002886097 
-0.00029146404 
-0.00029435987 
-0.00029730154 
-0.00030029143 
-0.0003033331 
-0.00030643228 
-0.00030959048 
-0.0003128106 
-0.00031609874 
-0.00031945872 
-0.00032289422 
-0.0003264114 
-0.00033001052 
-0.0003336967 
-0.00033747256 
-0.00034134512 
-0.00034531462 
-0.00034938165 
-0.00035355086 
-0.00035782525 
-0.00036220864 
-0.0003667044 
-0.0003713118 
-0.00037602757 
-0.00038085526 
-0.00038580367 
-0.00039087143 
-0.00039605913 
-0.00040136697 
-0.00040679285 
-0.00041234193 
-0.00041801255 
-0.00042380462 
-0.000429721 
-0.00043576283 
-0.00044192982 
-0.0004482237 
-0.00045464595 
-0.00046119635 
-0.0004678754 
-0.0004746859 
-0.00048163123 
-0.0004887142 
-0.0004959353 
-0.00050329644 
-0.00051080144 
-0.0005184547 
-0.00052625855 
-0.0005342171 
-0.00054233376 
-0.00055061874 
-0.0005590751 
-0.0005677021 
-0.0005765108 
-0.0005855122 
-0.00059471064 
-0.00060411444 
-0.0006137333 
-0.00062357594 
-0.0006336507 
-0.00064396823 
-0.00065453834 
-0.0006653717 
-0.0006764818 
-0.00068788015 
-0.00069958053 
-0.00071159453 
-0.00072393706 
-0.0007366217 
-0.00074966555 
-0.0007630847 
-0.0007768929 
-0.0007911061 
-0.000805746 
-0.0008208315 
-0.00083638186 
-0.0008524183 
-0.0008689603 
-0.0008860284 
-0.00090364664 
-0.000921841 
-0.00094063673 
-0.00096005964 
-0.0009801387 
-0.0010009054 
-0.0010223954 
-0.0010446378 
-0.0010676661 
-0.0010915203 
-0.0011162426 
-0.0011418802 
-0.0011684764 
-0.0011960765 
-0.0012247371 
-0.0012545141 
-0.001285468 
-0.0013176627 
-0.0013511692 
-0.0013860633 
-0.0014224255 
-0.0014603452 
-0.001499919 
-0.0015412497 
-0.0015844521 
-0.0016296521 
-0.0016769825 
-0.0017265957 
-0.0017786572 
-0.0018333446 
-0.0018908592 
-0.001951421 
-0.002015277 
-0.0020827043 