# OOMMF: rectangular mesh v1.0
# Segment count: 1
# Begin: Segment
# Begin: Header
# Desc: Time (s) :  3.0000006892164794e-07
# Title: m_y
# meshtype: rectangular
# meshunit: m
# xbase: 1.9999999999999997e-09
# ybase: 1.9999999999999997e-09
# zbase: 2.5e-09
# xstepsize: 3.9999999999999994e-09
# ystepsize: 3.9999999999999994e-09
# zstepsize: 5e-09
# xmin: 0
# ymin: 0
# zmin: 0
# xmax: 4e-06
# ymax: 1e-06
# zmax: 5e-09
# xnodes: 1000
# ynodes: 250
# znodes: 1
# ValueRangeMinMag: 1e-08
# ValueRangeMaxMag: 1
# valueunit: 
# valuemultiplier: 1
# End: Header
# Begin: Data Text
0.060190026 
0.043292403 
0.030412199 
0.022133669 
0.017211411 
0.014492397 
0.012606612 
0.0110689625 
0.009756662 
0.008650132 
0.0077370824 
0.0069918856 
0.0063812565 
0.0058732405 
0.005442178 
0.005069578 
0.004742813 
0.004453254 
0.0041947523 
0.00396264 
0.0037531757 
0.0035632628 
0.0033903045 
0.0032321247 
0.0030868957 
0.002953075 
0.002829359 
0.0027146416 
0.0026079763 
0.002508546 
0.0024156428 
0.0023286422 
0.0022469983 
0.0021702314 
0.0020979194 
0.0020296865 
0.0019651991 
0.0019041555 
0.0018462881 
0.0017913597 
0.0017391506 
0.0016894626 
0.0016421177 
0.0015969548 
0.0015538293 
0.0015126084 
0.001473171 
0.0014354007 
0.001399193 
0.0013644553 
0.0013311008 
0.0012990487 
0.0012682261 
0.0012385623 
0.0012099954 
0.0011824659 
0.0011559206 
0.0011303085 
0.0011055792 
0.0010816888 
0.0010585976 
0.0010362704 
0.0010146723 
0.0009937638 
0.0009735145 
0.0009538975 
0.00093488296 
0.0009164461 
0.00089856255 
0.000881207 
0.0008643604 
0.0008480029 
0.0008321122 
0.0008166709 
0.00080165965 
0.00078706327 
0.00077286724 
0.00075905677 
0.0007456179 
0.0007325344 
0.00071979663 
0.00070739107 
0.0006953034 
0.0006835236 
0.00067204115 
0.0006608453 
0.00064992637 
0.0006392744 
0.00062888203 
0.0006187387 
0.00060883403 
0.000599158 
0.0005897042 
0.00058046886 
0.00057144545 
0.0005626244 
0.00055399654 
0.0005455566 
0.0005372981 
0.00052921614 
0.00052130345 
0.0005135535 
0.00050596136 
0.0004985228 
0.00049123337 
0.00048408756 
0.00047707927 
0.0004702049 
0.0004634624 
0.00045684873 
0.00045036103 
0.00044399113 
0.00043773587 
0.00043159502 
0.00042556456 
0.00041963972 
0.00041382242 
0.00040810948 
0.00040249387 
0.0003969746 
0.00039155432 
0.00038623027 
0.00038099548 
0.00037585045 
0.00037079502 
0.00036582805 
0.00036094926 
0.00035615487 
0.00035144266 
0.00034681393 
0.00034226454 
0.00033779567 
0.00033340714 
0.00032909442 
0.00032485745 
0.00032069735 
0.00031661207 
0.00031259857 
0.0003086557 
0.0003047809 
0.00030097712 
0.00029724397 
0.00029357694 
0.00028997252 
0.00028643143 
0.00028295311 
0.0002795352 
0.0002761768 
0.0002728771 
0.00026963418 
0.00026644484 
0.00026330887 
0.0002602254 
0.0002571921 
0.00025420502 
0.0002512629 
0.000248368 
0.00024551846 
0.00024271183 
0.000239945 
0.00023721707 
0.00023452616 
0.00023187068 
0.00022925044 
0.00022666522 
0.0002241121 
0.00022158951 
0.00021909783 
0.00021663663 
0.00021420291 
0.00021179412 
0.00020941187 
0.00020705754 
0.00020472966 
0.00020242826 
0.00020014984 
0.00019789429 
0.00019566268 
0.00019345459 
0.00019127053 
0.00018911049 
0.0001869734 
0.0001848589 
0.00018276951 
0.00018070498 
0.00017866294 
0.00017664266 
0.00017464733 
0.00017267851 
0.00017073548 
0.00016881799 
0.0001669244 
0.00016505731 
0.00016321614 
0.00016139988 
0.00015961088 
0.00015784892 
0.00015611375 
0.00015440455 
0.00015272222 
0.00015106765 
0.00014944033 
0.00014783684 
0.00014625888 
0.00014470876 
0.00014318503 
0.00014168811 
0.00014021421 
0.0001387637 
0.0001373368 
0.00013593287 
0.00013455187 
0.00013319353 
0.00013185512 
0.00013053662 
0.00012923898 
0.00012795953 
0.00012669683 
0.00012544975 
0.00012421733 
0.00012300085 
0.00012180037 
0.000120612305 
0.00011943438 
0.000118269236 
0.00011711446 
0.000115967814 
0.00011483101 
0.00011370357 
0.0001125821 
0.00011146785 
0.00011036044 
0.00010925996 
0.00010816541 
0.00010707367 
0.000105985826 
0.00010490493 
0.000103830454 
0.000102761165 
0.00010169517 
0.00010063391 
9.957646e-05 
9.8524964e-05 
9.7479766e-05 
9.644045e-05 
9.5407064e-05 
9.438037e-05 
9.3360395e-05 
9.235069e-05 
9.1345515e-05 
9.034917e-05 
8.9362446e-05 
8.838674e-05 
8.74219e-05 
8.646847e-05 
8.552583e-05 
8.459446e-05 
8.3676125e-05 
8.277124e-05 
8.1879494e-05 
8.10019e-05 
8.013801e-05 
7.928733e-05 
7.845221e-05 
7.76328e-05 
7.682788e-05 
7.603698e-05 
7.5260505e-05 
7.449949e-05 
7.3754316e-05 
7.302469e-05 
7.230735e-05 
7.160398e-05 
7.0914306e-05 
7.0237205e-05 
6.957168e-05 
6.8917725e-05 
6.8276284e-05 
6.7645306e-05 
6.702364e-05 
6.641201e-05 
6.580814e-05 
6.521093e-05 
6.462126e-05 
6.403911e-05 
6.346308e-05 
6.2891755e-05 
6.2322746e-05 
6.175719e-05 
6.119511e-05 
6.0633796e-05 
6.0074344e-05 
5.9516176e-05 
5.895868e-05 
5.840081e-05 
5.784252e-05 
5.7283683e-05 
5.6724064e-05 
5.616198e-05 
5.5599077e-05 
5.5035314e-05 
5.44703e-05 
5.390555e-05 
5.333863e-05 
5.2769563e-05 
5.2199826e-05 
5.162923e-05 
5.105977e-05 
5.049153e-05 
4.9924147e-05 
4.935735e-05 
4.8792746e-05 
4.8231625e-05 
4.767272e-05 
4.7116446e-05 
4.6564965e-05 
4.601897e-05 
4.548014e-05 
4.494799e-05 
4.44209e-05 
4.3900796e-05 
4.3389577e-05 
4.288682e-05 
4.2393007e-05 
4.19093e-05 
4.1435083e-05 
4.096952e-05 
4.0514515e-05 
4.0072002e-05 
3.9638646e-05 
3.9215083e-05 
3.88044e-05 
3.8405233e-05 
3.801671e-05 
3.7639325e-05 
3.727074e-05 
3.69114e-05 
3.656253e-05 
3.6223373e-05 
3.5892444e-05 
3.5569825e-05 
3.5255493e-05 
3.494777e-05 
3.464645e-05 
3.4352386e-05 
3.406298e-05 
3.3776698e-05 
3.349479e-05 
3.3217293e-05 
3.294228e-05 
3.2669504e-05 
3.239741e-05 
3.212458e-05 
3.1851774e-05 
3.1578224e-05 
3.1303378e-05 
3.1026844e-05 
3.0748906e-05 
3.0467467e-05 
3.0182619e-05 
2.989526e-05 
2.9604376e-05 
2.9308809e-05 
2.9009445e-05 
2.870741e-05 
2.840256e-05 
2.809459e-05 
2.7781587e-05 
2.746476e-05 
2.7144477e-05 
2.682131e-05 
2.6495787e-05 
2.61687e-05 
2.5841044e-05 
2.5511667e-05 
2.51816e-05 
2.4851923e-05 
2.4522868e-05 
2.4194434e-05 
2.3868412e-05 
2.3546037e-05 
2.3227656e-05 
2.2913044e-05 
2.2601616e-05 
2.2294988e-05 
2.199393e-05 
2.169932e-05 
2.1411224e-05 
2.1131234e-05 
2.0858683e-05 
2.0591995e-05 
2.0334137e-05 
2.0085155e-05 
1.9843841e-05 
1.9610636e-05 
1.9386209e-05 
1.9171252e-05 
1.8966362e-05 
1.8769219e-05 
1.8578652e-05 
1.8396577e-05 
1.8222141e-05 
1.8054412e-05 
1.7893755e-05 
1.7740595e-05 
1.759354e-05 
1.745055e-05 
1.7312543e-05 
1.7179042e-05 
1.7048123e-05 
1.6919084e-05 
1.6792734e-05 
1.6669303e-05 
1.654753e-05 
1.642635e-05 
1.630294e-05 
1.6177084e-05 
1.6050417e-05 
1.5922178e-05 
1.5790298e-05 
1.5655325e-05 
1.5517395e-05 
1.5374279e-05 
1.5226884e-05 
1.5075385e-05 
1.4917568e-05 
1.4753235e-05 
1.4584529e-05 
1.4411653e-05 
1.4233472e-05 
1.4050468e-05 
1.3860953e-05 
1.3666494e-05 
1.3467264e-05 
1.3262657e-05 
1.3054373e-05 
1.2843514e-05 
1.2629059e-05 
1.2411686e-05 
1.2191876e-05 
1.1969943e-05 
1.1746605e-05 
1.1521758e-05 
1.1296771e-05 
1.1073601e-05 
1.0853173e-05 
1.0634677e-05 
1.0417917e-05 
1.0202885e-05 
9.990254e-06 
9.781706e-06 
9.578703e-06 
9.381416e-06 
9.189484e-06 
9.0018175e-06 
8.820884e-06 
8.6478185e-06 
8.479288e-06 
8.315557e-06 
8.160207e-06 
8.013218e-06 
7.873416e-06 
7.739444e-06 
7.6097904e-06 
7.487006e-06 
7.371134e-06 
7.2598477e-06 
7.1544e-06 
7.0547294e-06 
6.9582748e-06 
6.8649692e-06 
6.7758842e-06 
6.689699e-06 
6.6041293e-06 
6.5189865e-06 
6.4352653e-06 
6.353222e-06 
6.2718773e-06 
6.189517e-06 
6.102578e-06 
6.0131565e-06 
5.9215936e-06 
5.82718e-06 
5.7282227e-06 
5.624648e-06 
5.516074e-06 
5.401681e-06 
5.282398e-06 
5.1576635e-06 
5.025133e-06 
4.8839215e-06 
4.737795e-06 
4.586846e-06 
4.428499e-06 
4.2636498e-06 
4.09091e-06 
3.9112874e-06 
3.7260986e-06 
3.5335947e-06 
3.337883e-06 
3.1378675e-06 
2.93113e-06 
2.719159e-06 
2.5041031e-06 
2.2864049e-06 
2.0648524e-06 
1.8387242e-06 
1.6124984e-06 
1.3868743e-06 
1.1601193e-06 
9.3390145e-07 
7.0644967e-07 
4.7989914e-07 
2.5546865e-07 
3.332282e-08 
-1.8498774e-07 
-4.0099158e-07 
-6.136859e-07 
-8.2257435e-07 
-1.0263649e-06 
-1.225393e-06 
-1.4205049e-06 
-1.6121763e-06 
-1.798013e-06 
-1.977372e-06 
-2.1512526e-06 
-2.3193509e-06 
-2.4842443e-06 
-2.6452635e-06 
-2.8011016e-06 
-2.952776e-06 
-3.0998929e-06 
-3.243415e-06 
-3.3843153e-06 
-3.5226371e-06 
-3.6587828e-06 
-3.7919938e-06 
-3.924784e-06 
-4.0603227e-06 
-4.1951375e-06 
-4.3285618e-06 
-4.462675e-06 
-4.598884e-06 
-4.739286e-06 
-4.8831553e-06 
-5.0303574e-06 
-5.1818924e-06 
-5.337674e-06 
-5.4981365e-06 
-5.6650915e-06 
-5.838741e-06 
-6.0179414e-06 
-6.2038353e-06 
-6.3976963e-06 
-6.59983e-06 
-6.808827e-06 
-7.023421e-06 
-7.245856e-06 
-7.475848e-06 
-7.715077e-06 
-7.961578e-06 
-8.2142415e-06 
-8.474378e-06 
-8.741002e-06 
-9.01327e-06 
-9.291345e-06 
-9.575836e-06 
-9.8648425e-06 
-1.0157709e-05 
-1.0456056e-05 
-1.075932e-05 
-1.1063754e-05 
-1.136924e-05 
-1.167596e-05 
-1.1984552e-05 
-1.2295458e-05 
-1.2605949e-05 
-1.2915593e-05 
-1.3224303e-05 
-1.3531532e-05 
-1.3836799e-05 
-1.4139447e-05 
-1.4439107e-05 
-1.473536e-05 
-1.5028113e-05 
-1.5318099e-05 
-1.5606049e-05 
-1.588828e-05 
-1.6164866e-05 
-1.6437492e-05 
-1.670598e-05 
-1.697181e-05 
-1.723492e-05 
-1.7493392e-05 
-1.7748576e-05 
-1.800094e-05 
-1.8249779e-05 
-1.8496386e-05 
-1.8740651e-05 
-1.8982999e-05 
-1.9224595e-05 
-1.9467201e-05 
-1.9711531e-05 
-1.9954921e-05 
-2.0197132e-05 
-2.0441024e-05 
-2.0687567e-05 
-2.0938713e-05 
-2.1194426e-05 
-2.145301e-05 
-2.17152e-05 
-2.198263e-05 
-2.2256148e-05 
-2.2535036e-05 
-2.2821163e-05 
-2.3114031e-05 
-2.3413371e-05 
-2.3720937e-05 
-2.4036857e-05 
-2.4360172e-05 
-2.4690024e-05 
-2.5027048e-05 
-2.5372387e-05 
-2.5727795e-05 
-2.6089849e-05 
-2.6459971e-05 
-2.6838918e-05 
-2.7224118e-05 
-2.761536e-05 
-2.8013224e-05 
-2.841701e-05 
-2.8826355e-05 
-2.9241384e-05 
-2.9662178e-05 
-3.0088251e-05 
-3.0516758e-05 
-3.0947067e-05 
-3.1379204e-05 
-3.1814467e-05 
-3.2252923e-05 
-3.2692686e-05 
-3.3132525e-05 
-3.3572167e-05 
-3.401135e-05 
-3.4449193e-05 
-3.48853e-05 
-3.531999e-05 
-3.5752688e-05 
-3.6182108e-05 
-3.660968e-05 
-3.7037593e-05 
-3.746035e-05 
-3.7877977e-05 
-3.8292037e-05 
-3.870449e-05 
-3.9116527e-05 
-3.952472e-05 
-3.9928804e-05 
-4.0330724e-05 
-4.073096e-05 
-4.112826e-05 
-4.1525116e-05 
-4.192098e-05 
-4.231519e-05 
-4.270968e-05 
-4.3105294e-05 
-4.3502954e-05 
-4.390021e-05 
-4.4298708e-05 
-4.4699736e-05 
-4.510427e-05 
-4.551404e-05 
-4.592811e-05 
-4.634696e-05 
-4.6771107e-05 
-4.720091e-05 
-4.76377e-05 
-4.8081023e-05 
-4.8531263e-05 
-4.8989332e-05 
-4.945554e-05 
-4.9931263e-05 
-5.041631e-05 
-5.090907e-05 
-5.140884e-05 
-5.1917676e-05 
-5.2436862e-05 
-5.2965937e-05 
-5.3504846e-05 
-5.4052478e-05 
-5.4608245e-05 
-5.5172983e-05 
-5.5746106e-05 
-5.6327233e-05 
-5.6915742e-05 
-5.7512112e-05 
-5.8115285e-05 
-5.8725713e-05 
-5.9344336e-05 
-5.9966023e-05 
-6.0591883e-05 
-6.122292e-05 
-6.185902e-05 
-6.249994e-05 
-6.3143925e-05 
-6.379079e-05 
-6.443992e-05 
-6.509072e-05 
-6.574378e-05 
-6.639828e-05 
-6.7052875e-05 
-6.770729e-05 
-6.836208e-05 
-6.901914e-05 
-6.967807e-05 
-7.033443e-05 
-7.098908e-05 
-7.164332e-05 
-7.229735e-05 
-7.295404e-05 
-7.361097e-05 
-7.426814e-05 
-7.492704e-05 
-7.5586104e-05 
-7.624572e-05 
-7.6907636e-05 
-7.7571975e-05 
-7.823749e-05 
-7.890715e-05 
-7.9582256e-05 
-8.026257e-05 
-8.0945814e-05 
-8.163254e-05 
-8.23266e-05 
-8.302885e-05 
-8.373933e-05 
-8.445774e-05 
-8.518445e-05 
-8.5920736e-05 
-8.666733e-05 
-8.742372e-05 
-8.819083e-05 
-8.897008e-05 
-8.975982e-05 
-9.0562695e-05 
-9.137945e-05 
-9.221047e-05 
-9.305239e-05 
-9.390658e-05 
-9.4774936e-05 
-9.5658404e-05 
-9.655696e-05 
-9.74699e-05 
-9.839722e-05 
-9.933911e-05 
-0.00010029432 
-0.000101262835 
-0.00010224504 
-0.00010324082 
-0.00010424951 
-0.00010527119 
-0.00010630669 
-0.00010735644 
-0.00010841633 
-0.000109486085 
-0.000110567395 
-0.00011166012 
-0.00011276649 
-0.000113882896 
-0.00011500869 
-0.00011614519 
-0.00011729126 
-0.00011844638 
-0.0001196107 
-0.00012078286 
-0.00012196382 
-0.00012315453 
-0.0001243547 
-0.00012556557 
-0.00012678312 
-0.00012800698 
-0.00012924107 
-0.00013048576 
-0.00013174169 
-0.00013300704 
-0.00013428206 
-0.00013556883 
-0.00013686641 
-0.00013817547 
-0.00013949825 
-0.00014083266 
-0.00014218035 
-0.00014354348 
-0.00014492216 
-0.0001463186 
-0.00014772988 
-0.00014915549 
-0.00015059994 
-0.00015206604 
-0.00015355342 
-0.00015506076 
-0.00015658964 
-0.00015814004 
-0.00015971356 
-0.00016131213 
-0.0001629358 
-0.00016458357 
-0.00016625729 
-0.00016795831 
-0.00016968728 
-0.00017144598 
-0.00017323061 
-0.00017504198 
-0.00017688332 
-0.00017875606 
-0.00018066185 
-0.00018259812 
-0.00018456522 
-0.0001865634 
-0.00018859324 
-0.00019065442 
-0.00019274764 
-0.00019487277 
-0.00019702927 
-0.00019922045 
-0.00020144468 
-0.0002037016 
-0.00020599032 
-0.00020831036 
-0.00021066418 
-0.00021305196 
-0.00021547487 
-0.00021793164 
-0.00022042192 
-0.00022294656 
-0.00022550506 
-0.00022809913 
-0.00023072916 
-0.00023339315 
-0.00023609289 
-0.00023882934 
-0.00024160395 
-0.00024441822 
-0.00024726757 
-0.00025015476 
-0.00025308406 
-0.00025605562 
-0.0002590713 
-0.00026213087 
-0.00026523357 
-0.00026838068 
-0.00027157555 
-0.0002748201 
-0.0002781145 
-0.00028145808 
-0.00028485313 
-0.0002883031 
-0.00029181075 
-0.000295377 
-0.00029900018 
-0.00030268173 
-0.0003064261 
-0.00031023784 
-0.0003141193 
-0.00031806793 
-0.00032208464 
-0.00032617574 
-0.00033034245 
-0.00033458415 
-0.0003389038 
-0.00034330194 
-0.00034778207 
-0.0003523495 
-0.00035700641 
-0.00036175046 
-0.00036658015 
-0.0003715025 
-0.00037652266 
-0.00038163914 
-0.00038685658 
-0.00039217738 
-0.00039760163 
-0.00040313238 
-0.00040877057 
-0.0004145192 
-0.00042038146 
-0.00042635863 
-0.00043245533 
-0.000438675 
-0.00044502018 
-0.0004514928 
-0.0004580932 
-0.0004648263 
-0.00047169672 
-0.00047870958 
-0.0004858693 
-0.0004931762 
-0.0005006349 
-0.00050824904 
-0.0005160234 
-0.00052396447 
-0.00053207396 
-0.0005403589 
-0.0005488255 
-0.00055747695 
-0.00056632055 
-0.0005753631 
-0.0005846089 
-0.0005940665 
-0.00060374377 
-0.0006136484 
-0.00062378816 
-0.00063416956 
-0.00064480165 
-0.0006556946 
-0.0006668574 
-0.00067830057 
-0.00069003494 
-0.00070206873 
-0.0007144141 
-0.00072708615 
-0.0007400988 
-0.00075346173 
-0.0007671871 
-0.0007812927 
-0.0007957933 
-0.0008107081 
-0.0008260553 
-0.0008418486 
-0.00085810624 
-0.0008748507 
-0.0008921021 
-0.0009098848 
-0.0009282227 
-0.00094713806 
-0.00096665946 
-0.0009868151 
-0.0010076336 
-0.0010291435 
-0.0010513726 
-0.0010743625 
-0.0010981692 
-0.0011228614 
-0.0011485262 
-0.0011752456 
-0.0012030295 
-0.0012316991 
-0.0012607462 
-0.0012893016 
-0.0013165443 
-0.0013430179 
-0.0013718855 
-0.0014036454 
-0.0014386071 
-0.0014769244 
-0.0015185921 
-0.0015634734 
-0.0016113439 
-0.0016619422 
-0.0017150324 
-0.0017704575 
-0.0018281885 
-0.0018883289 
-0.0019511058 
-0.00201685 
-0.0020859619 
-0.0021588842 
-0.002236097 
-0.0023181075 
-0.0024054474 
-0.0024986812 
-0.002598434 
-0.0027054215 
-0.0028204634 
-0.0029445023 
-0.0030786383 
-0.0032241622 
-0.0033826067 
-0.0035557938 
-0.003745902 
-0.0039555696 
-0.0041880175 
-0.004447227 
-0.0047381776 
-0.0050671916 
-0.005442447 
-0.0058746994 
-0.006378437 
-0.0069736727 
-0.0076888045 
-0.008565343 
-0.0096658915 
-0.011087795 
-0.012986721 
-0.0156172905 
-0.019402422 
-0.025048083 
-0.03367121 
-0.046701618 
-0.06373442 
0.047780044 
0.037897404 
0.028300531 
0.021368159 
0.017014436 
0.014554294 
0.012789382 
0.011302245 
0.010003813 
0.008893522 
0.007969616 
0.0072117187 
0.0065887365 
0.006069353 
0.0056279204 
0.0052457973 
0.004910212 
0.004612453 
0.004346321 
0.004107116 
0.0038910646 
0.003695035 
0.0035163972 
0.0033529345 
0.0032027808 
0.003064366 
0.0029363546 
0.002817613 
0.0027071731 
0.0026041954 
0.002507951 
0.0024178012 
0.0023331847 
0.0022536076 
0.0021786357 
0.002107882 
0.0020409997 
0.001977683 
0.0019176543 
0.0018606638 
0.0018064904 
0.0017549288 
0.0017057937 
0.0016589201 
0.0016141584 
0.0015713692 
0.001530425 
0.0014912094 
0.0014536164 
0.001417546 
0.0013829082 
0.0013496211 
0.0013176104 
0.0012868016 
0.0012571287 
0.0012285335 
0.001200958 
0.0011743503 
0.0011486594 
0.0011238386 
0.0010998477 
0.0010766495 
0.0010542056 
0.0010324788 
0.0010114366 
0.0009910504 
0.00097129017 
0.0009521297 
0.0009335435 
0.00091550587 
0.0008979963 
0.0008809958 
0.00086447987 
0.00084842957 
0.00083282887 
0.00081766024 
0.00080290716 
0.00078855426 
0.0007745867 
0.00076098944 
0.00074775174 
0.00073486083 
0.00072230113 
0.0007100601 
0.0006981286 
0.00068649626 
0.0006751519 
0.0006640856 
0.00065328967 
0.00064275146 
0.00063246116 
0.0006224112 
0.0006125937 
0.000603003 
0.00059362996 
0.0005844667 
0.000575505 
0.00056673924 
0.0005581642 
0.00054977066 
0.0005415523 
0.00053350354 
0.0005256189 
0.00051789265 
0.00051032077 
0.00050289853 
0.00049561966 
0.00048847916 
0.0004814744 
0.00047460268 
0.00046785988 
0.0004612404 
0.00045474028 
0.00044835755 
0.00044208908 
0.0004359313 
0.00042988325 
0.00042394278 
0.00041810345 
0.00041236496 
0.00040672786 
0.0004011895 
0.00039574673 
0.0003903957 
0.00038513512 
0.00037996707 
0.00037488967 
0.00036990095 
0.0003649989 
0.0003601828 
0.00035544968 
0.0003507988 
0.00034623255 
0.00034174716 
0.0003373411 
0.0003330135 
0.00032876254 
0.000324587 
0.00032048774 
0.00031646164 
0.0003125061 
0.00030862438 
0.00030481286 
0.00030106746 
0.00029738815 
0.00029377497 
0.0002902255 
0.0002867381 
0.0002833122 
0.00027994564 
0.0002766357 
0.00027338142 
0.0002701819 
0.00026703416 
0.00026393615 
0.00026088636 
0.00025788447 
0.0002549294 
0.0002520181 
0.0002491486 
0.0002463199 
0.00024352997 
0.00024077728 
0.00023806047 
0.00023537951 
0.00023273114 
0.00023011444 
0.0002275299 
0.00022497542 
0.00022244881 
0.00021994965 
0.00021747734 
0.00021503249 
0.00021261412 
0.00021022126 
0.00020785345 
0.00020550944 
0.00020318874 
0.00020089248 
0.00019862052 
0.00019637217 
0.00019414733 
0.00019194698 
0.00018977113 
0.0001876192 
0.00018549146 
0.00018338789 
0.0001813098 
0.00017925796 
0.00017723207 
0.00017523201 
0.00017325854 
0.00017131261 
0.0001693939 
0.00016750109 
0.00016563575 
0.00016379968 
0.00016199185 
0.00016021189 
0.00015846029 
0.00015673705 
0.00015504232 
0.00015337473 
0.00015173471 
0.00015012264 
0.0001485381 
0.00014698187 
0.00014545146 
0.00014394593 
0.00014246523 
0.00014100937 
0.00013957772 
0.00013816939 
0.00013678308 
0.0001354179 
0.00013407394 
0.0001327495 
0.00013144294 
0.00013015367 
0.00012888023 
0.00012762299 
0.00012638028 
0.00012515148 
0.0001239349 
0.0001227296 
0.00012153488 
0.00012035065 
0.000119175194 
0.00011800787 
0.000116847565 
0.00011569409 
0.00011454684 
0.00011340592 
0.00011227037 
0.00011113941 
0.000110012355 
0.000108889864 
0.00010777248 
0.00010666001 
0.00010555127 
0.00010444679 
0.00010334641 
0.00010225122 
0.0001011615 
0.00010007845 
9.9000375e-05 
9.792848e-05 
9.6863376e-05 
9.580758e-05 
9.4757575e-05 
9.371727e-05 
9.268612e-05 
9.166531e-05 
9.0656315e-05 
8.965899e-05 
8.867301e-05 
8.769961e-05 
8.67397e-05 
8.579335e-05 
8.486128e-05 
8.394372e-05 
8.304108e-05 
8.215431e-05 
8.12831e-05 
8.042738e-05 
7.958823e-05 
7.876487e-05 
7.795724e-05 
7.7165954e-05 
7.639127e-05 
7.563257e-05 
7.488835e-05 
7.415929e-05 
7.344434e-05 
7.274329e-05 
7.2055635e-05 
7.138099e-05 
7.0719085e-05 
7.006762e-05 
6.942713e-05 
6.879676e-05 
6.8174864e-05 
6.756172e-05 
6.695558e-05 
6.635597e-05 
6.576319e-05 
6.517647e-05 
6.4592125e-05 
6.401041e-05 
6.3432104e-05 
6.285497e-05 
6.2279134e-05 
6.170463e-05 
6.1129176e-05 
6.0553913e-05 
5.997825e-05 
5.940087e-05 
5.8821926e-05 
5.824026e-05 
5.76568e-05 
5.7072593e-05 
5.6486373e-05 
5.5898203e-05 
5.5307763e-05 
5.4715365e-05 
5.412133e-05 
5.352686e-05 
5.2932504e-05 
5.2337702e-05 
5.174322e-05 
5.1150404e-05 
5.055958e-05 
4.9970906e-05 
4.9384726e-05 
4.88017e-05 
4.8223068e-05 
4.7650083e-05 
4.708392e-05 
4.6524463e-05 
4.5971254e-05 
4.5425546e-05 
4.4889155e-05 
4.4362077e-05 
4.384422e-05 
4.3336615e-05 
4.283943e-05 
4.235313e-05 
4.187796e-05 
4.1414085e-05 
4.0962153e-05 
4.0522526e-05 
4.0094816e-05 
3.9679013e-05 
3.92758e-05 
3.8883685e-05 
3.850235e-05 
3.8131988e-05 
3.7772956e-05 
3.7423924e-05 
3.7084203e-05 
3.6754198e-05 
3.643224e-05 
3.611779e-05 
3.5811063e-05 
3.5511242e-05 
3.521685e-05 
3.4926845e-05 
3.464147e-05 
3.4359695e-05 
3.4080324e-05 
3.380356e-05 
3.3527755e-05 
3.325201e-05 
3.2975593e-05 
3.2698106e-05 
3.241857e-05 
3.2137108e-05 
3.1853688e-05 
3.1566153e-05 
3.12748e-05 
3.0980482e-05 
3.0681837e-05 
3.0378493e-05 
3.0070385e-05 
2.9758363e-05 
2.9442259e-05 
2.9121788e-05 
2.8796409e-05 
2.8467004e-05 
2.8133574e-05 
2.7796665e-05 
2.7457021e-05 
2.7114209e-05 
2.677004e-05 
2.6424523e-05 
2.6078467e-05 
2.5731906e-05 
2.5385314e-05 
2.5040094e-05 
2.4696892e-05 
2.4357012e-05 
2.4021143e-05 
2.3688708e-05 
2.3360011e-05 
2.3037022e-05 
2.2720502e-05 
2.241024e-05 
2.2107019e-05 
2.181195e-05 
2.152538e-05 
2.1246564e-05 
2.0976471e-05 
2.071571e-05 
2.046396e-05 
2.022144e-05 
1.998879e-05 
1.976643e-05 
1.9553703e-05 
1.9350093e-05 
1.915501e-05 
1.8968758e-05 
1.8791077e-05 
1.8621262e-05 
1.8459366e-05 
1.8305398e-05 
1.8157849e-05 
1.8015622e-05 
1.7878603e-05 
1.7746428e-05 
1.7617745e-05 
1.7491942e-05 
1.7368604e-05 
1.724802e-05 
1.7128556e-05 
1.7009183e-05 
1.6888625e-05 
1.6766471e-05 
1.6641972e-05 
1.6515402e-05 
1.6386055e-05 
1.625227e-05 
1.6114478e-05 
1.5972028e-05 
1.582447e-05 
1.567164e-05 
1.5511994e-05 
1.5345877e-05 
1.5174067e-05 
1.4996543e-05 
1.4813095e-05 
1.4623415e-05 
1.4428155e-05 
1.4226638e-05 
1.4018855e-05 
1.3806215e-05 
1.3588506e-05 
1.3367022e-05 
1.3141796e-05 
1.29130585e-05 
1.2681469e-05 
1.2447358e-05 
1.2211516e-05 
1.1974442e-05 
1.1737295e-05 
1.1501379e-05 
1.1267503e-05 
1.1035424e-05 
1.0804912e-05 
1.0577801e-05 
1.0353962e-05 
1.0133729e-05 
9.918859e-06 
9.71032e-06 
9.507902e-06 
9.310699e-06 
9.120823e-06 
8.938631e-06 
8.762868e-06 
8.593741e-06 
8.432278e-06 
8.279621e-06 
8.13482e-06 
7.996621e-06 
7.8651765e-06 
7.740736e-06 
7.6238034e-06 
7.5123785e-06 
7.4067902e-06 
7.3076026e-06 
7.212646e-06 
7.1220575e-06 
7.035576e-06 
6.951998e-06 
6.8700188e-06 
6.78919e-06 
6.7103115e-06 
6.6325742e-06 
6.5541026e-06 
6.4751434e-06 
6.3930397e-06 
6.307412e-06 
6.219521e-06 
6.127974e-06 
6.031685e-06 
5.9299055e-06 
5.823018e-06 
5.7105344e-06 
5.5916307e-06 
5.466157e-06 
5.332516e-06 
5.190059e-06 
5.0410194e-06 
4.8863226e-06 
4.7233816e-06 
4.5529086e-06 
4.374582e-06 
4.1882913e-06 
3.9952783e-06 
3.7952182e-06 
3.5894864e-06 
3.3790407e-06 
3.161934e-06 
2.9388111e-06 
2.7118945e-06 
2.4812462e-06 
2.2463948e-06 
2.008913e-06 
1.7694806e-06 
1.52954e-06 
1.2890883e-06 
1.0478428e-06 
8.0693724e-07 
5.6774303e-07 
3.3029684e-07 
9.513788e-08 
-1.366323e-07 
-3.6521095e-07 
-5.9010927e-07 
-8.106106e-07 
-1.025374e-06 
-1.2344801e-06 
-1.4394391e-06 
-1.6398374e-06 
-1.8330204e-06 
-2.0198802e-06 
-2.2010656e-06 
-2.3762432e-06 
-2.5465733e-06 
-2.7113736e-06 
-2.8709285e-06 
-3.0258004e-06 
-3.175666e-06 
-3.3214503e-06 
-3.4639106e-06 
-3.6028703e-06 
-3.7394555e-06 
-3.8738526e-06 
-4.0064856e-06 
-4.14006e-06 
-4.2740635e-06 
-4.4066815e-06 
-4.5400284e-06 
-4.6762298e-06 
-4.816012e-06 
-4.9591968e-06 
-5.106377e-06 
-5.2579408e-06 
-5.414649e-06 
-5.576578e-06 
-5.7449274e-06 
-5.9207314e-06 
-6.1033697e-06 
-6.293557e-06 
-6.492171e-06 
-6.6985435e-06 
-6.912697e-06 
-7.1354216e-06 
-7.3665765e-06 
-7.605677e-06 
-7.854507e-06 
-8.111207e-06 
-8.374532e-06 
-8.646781e-06 
-8.926265e-06 
-9.21247e-06 
-9.505676e-06 
-9.804704e-06 
-1.0109597e-05 
-1.0418788e-05 
-1.0733252e-05 
-1.1052673e-05 
-1.1374851e-05 
-1.1698576e-05 
-1.2023309e-05 
-1.2349827e-05 
-1.2678271e-05 
-1.3007008e-05 
-1.3334703e-05 
-1.3661218e-05 
-1.3985498e-05 
-1.43075795e-05 
-1.4627173e-05 
-1.4943283e-05 
-1.5255434e-05 
-1.5563253e-05 
-1.5868027e-05 
-1.6169652e-05 
-1.646476e-05 
-1.675449e-05 
-1.7039984e-05 
-1.7320393e-05 
-1.759671e-05 
-1.7869063e-05 
-1.813682e-05 
-1.8400655e-05 
-1.8660616e-05 
-1.8917028e-05 
-1.9170891e-05 
-1.9421539e-05 
-1.967023e-05 
-1.9918287e-05 
-2.0166191e-05 
-2.0414056e-05 
-2.0661284e-05 
-2.090928e-05 
-2.1158978e-05 
-2.1410508e-05 
-2.1665694e-05 
-2.1925764e-05 
-2.2190039e-05 
-2.2458573e-05 
-2.2732153e-05 
-2.3011984e-05 
-2.3298304e-05 
-2.3591794e-05 
-2.3893217e-05 
-2.4202156e-05 
-2.4519213e-05 
-2.4845383e-05 
-2.5179634e-05 
-2.5521724e-05 
-2.5872521e-05 
-2.6232186e-05 
-2.660182e-05 
-2.6979946e-05 
-2.7366355e-05 
-2.776178e-05 
-2.8165417e-05 
-2.8575478e-05 
-2.8992114e-05 
-2.9416022e-05 
-2.984667e-05 
-3.0283836e-05 
-3.0726205e-05 
-3.1173244e-05 
-3.16245e-05 
-3.207803e-05 
-3.2533786e-05 
-3.299282e-05 
-3.3454246e-05 
-3.3916796e-05 
-3.4380184e-05 
-3.4843237e-05 
-3.5304398e-05 
-3.5764417e-05 
-3.6223497e-05 
-3.6680267e-05 
-3.71343e-05 
-3.7585094e-05 
-3.8033842e-05 
-3.8480266e-05 
-3.8921495e-05 
-3.9358274e-05 
-3.979158e-05 
-4.022153e-05 
-4.0648683e-05 
-4.107278e-05 
-4.149309e-05 
-4.1909792e-05 
-4.2323798e-05 
-4.2735664e-05 
-4.3145148e-05 
-4.355279e-05 
-4.39594e-05 
-4.4366167e-05 
-4.477365e-05 
-4.51818e-05 
-4.5590194e-05 
-4.599993e-05 
-4.6412726e-05 
-4.6828856e-05 
-4.7249167e-05 
-4.7673948e-05 
-4.8104223e-05 
-4.854104e-05 
-4.8983355e-05 
-4.9432303e-05 
-4.988882e-05 
-5.035305e-05 
-5.0826053e-05 
-5.130784e-05 
-5.179853e-05 
-5.2299147e-05 
-5.2809653e-05 
-5.3329062e-05 
-5.385773e-05 
-5.4396896e-05 
-5.4946773e-05 
-5.5507047e-05 
-5.607702e-05 
-5.6656303e-05 
-5.7245277e-05 
-5.78435e-05 
-5.8450205e-05 
-5.9065762e-05 
-5.9689435e-05 
-6.032009e-05 
-6.0958686e-05 
-6.1604995e-05 
-6.225654e-05 
-6.291254e-05 
-6.357376e-05 
-6.4240245e-05 
-6.4911124e-05 
-6.558494e-05 
-6.62616e-05 
-6.694157e-05 
-6.762278e-05 
-6.830556e-05 
-6.89888e-05 
-6.96725e-05 
-7.035714e-05 
-7.1041504e-05 
-7.1726136e-05 
-7.241142e-05 
-7.30953e-05 
-7.377713e-05 
-7.4458265e-05 
-7.513905e-05 
-7.582029e-05 
-7.65022e-05 
-7.718315e-05 
-7.7864715e-05 
-7.8547426e-05 
-7.923019e-05 
-7.991419e-05 
-8.060056e-05 
-8.128888e-05 
-8.198043e-05 
-8.2675964e-05 
-8.337674e-05 
-8.408114e-05 
-8.479004e-05 
-8.550572e-05 
-8.6230124e-05 
-8.696228e-05 
-8.770232e-05 
-8.8451256e-05 
-8.9210705e-05 
-8.99805e-05 
-9.076097e-05 
-9.155341e-05 
-9.23578e-05 
-9.317412e-05 
-9.400485e-05 
-9.4848925e-05 
-9.57077e-05 
-9.657978e-05 
-9.746582e-05 
-9.8366145e-05 
-9.928257e-05 
-0.000100214806 
-0.00010116294 
-0.00010212611 
-0.0001031043 
-0.00010409717 
-0.00010510494 
-0.00010612756 
-0.000107163265 
-0.000108213535 
-0.00010927916 
-0.00011035802 
-0.000111449786 
-0.00011255353 
-0.00011367 
-0.000114798 
-0.00011593712 
-0.00011708872 
-0.00011825237 
-0.000119426004 
-0.00012060967 
-0.000121803256 
-0.00012300612 
-0.0001242178 
-0.00012543841 
-0.0001266679 
-0.00012790684 
-0.00012915485 
-0.00013041195 
-0.00013167704 
-0.00013294918 
-0.00013423123 
-0.00013552369 
-0.00013682643 
-0.00013813861 
-0.0001394601 
-0.00014079368 
-0.00014213848 
-0.00014349457 
-0.00014486397 
-0.00014624542 
-0.0001476408 
-0.00014905176 
-0.00015047865 
-0.00015192182 
-0.00015338101 
-0.00015485709 
-0.00015635244 
-0.00015786881 
-0.00015940626 
-0.00016096559 
-0.00016254753 
-0.00016415262 
-0.00016578185 
-0.00016743633 
-0.00016911648 
-0.00017082316 
-0.00017255782 
-0.00017432022 
-0.00017611177 
-0.00017793376 
-0.00017978449 
-0.00018166476 
-0.0001835763 
-0.0001855207 
-0.0001874984 
-0.0001895084 
-0.00019155092 
-0.00019362668 
-0.00019573525 
-0.0001978774 
-0.00020005427 
-0.00020226356 
-0.00020450597 
-0.00020678375 
-0.00020909662 
-0.00021144407 
-0.00021382446 
-0.00021623843 
-0.00021868764 
-0.0002211717 
-0.000223691 
-0.00022624615 
-0.00022883683 
-0.0002314621 
-0.00023412253 
-0.00023682014 
-0.00023955434 
-0.00024232351 
-0.0002451296 
-0.00024797456 
-0.00025085846 
-0.00025378083 
-0.00025674189 
-0.00025974284 
-0.00026278486 
-0.00026587045 
-0.00026900132 
-0.00027217783 
-0.00027539904 
-0.00027866586 
-0.00028198218 
-0.00028534918 
-0.00028876693 
-0.0002922378 
-0.0002957612 
-0.00029933933 
-0.00030297725 
-0.00030667702 
-0.0003104365 
-0.0003142573 
-0.0003181444 
-0.00032209876 
-0.00032612507 
-0.00033022376 
-0.0003343925 
-0.000338636 
-0.00034296056 
-0.00034736498 
-0.00035184895 
-0.0003564158 
-0.00036106823 
-0.0003658107 
-0.0003706457 
-0.00037557242 
-0.00038059114 
-0.00038570532 
-0.0003909202 
-0.00039623692 
-0.00040165862 
-0.0004071866 
-0.00041282282 
-0.0004185719 
-0.00042443155 
-0.00043040633 
-0.0004364997 
-0.00044271437 
-0.00044905388 
-0.00045551895 
-0.00046211408 
-0.0004688427 
-0.0004757058 
-0.0004827065 
-0.00048985047 
-0.0004971423 
-0.00050458463 
-0.00051218044 
-0.0005199333 
-0.0005278483 
-0.00053592975 
-0.00054418284 
-0.00055261207 
-0.0005612227 
-0.0005700219 
-0.0005790137 
-0.0005882046 
-0.00059760094 
-0.00060720945 
-0.00061703793 
-0.0006270936 
-0.0006373836 
-0.00064791663 
-0.00065870304 
-0.0006697498 
-0.00068106584 
-0.0006926621 
-0.00070454954 
-0.0007167396 
-0.0007292405 
-0.0007420655 
-0.000755229 
-0.00076874596 
-0.0007826271 
-0.00079688604 
-0.0008115389 
-0.00082660234 
-0.0008420962 
-0.00085803785 
-0.0008744435 
-0.0008913327 
-0.0009087269 
-0.0009266479 
-0.00094512117 
-0.00096417096 
-0.0009838219 
-0.0010041024 
-0.0010250409 
-0.0010466668 
-0.0010690095 
-0.0010921021 
-0.0011159867 
-0.0011407186 
-0.0011663706 
-0.0011930352 
-0.0012207972 
-0.0012496646 
-0.0012794416 
-0.0013095881 
-0.0013391955 
-0.0013674209 
-0.0013948585 
-0.0014247785 
-0.0014577121 
-0.0014939886 
-0.0015337678 
-0.001577045 
-0.0016236753 
-0.0016734133 
-0.0017259781 
-0.0017811215 
-0.0018386763 