# OOMMF: rectangular mesh v1.0
# Segment count: 1
# Begin: Segment
# Begin: Header
# Desc: Time (s) :  3.0000002353122906e-07
# Title: m_y
# meshtype: rectangular
# meshunit: m
# xbase: 1.9999999999999997e-09
# ybase: 1.9999999999999997e-09
# zbase: 2.5e-09
# xstepsize: 3.9999999999999994e-09
# ystepsize: 3.9999999999999994e-09
# zstepsize: 5e-09
# xmin: 0
# ymin: 0
# zmin: 0
# xmax: 4e-06
# ymax: 1e-06
# zmax: 5e-09
# xnodes: 1000
# ynodes: 250
# znodes: 1
# ValueRangeMinMag: 1e-08
# ValueRangeMaxMag: 1
# valueunit: 
# valuemultiplier: 1
# End: Header
# Begin: Data Text
0.06011284 
0.043216743 
0.030339535 
0.022069069 
0.017161889 
0.014468877 
0.012602134 
0.011077992 
0.009771837 
0.008664923 
0.0077478983 
0.0069981427 
0.006384165 
0.005874469 
0.005443021 
0.0050707073 
0.004744381 
0.0044551385 
0.0041967523 
0.0039645955 
0.0037549953 
0.0035649214 
0.0033918142 
0.0032335087 
0.0030881783 
0.002954274 
0.0028304826 
0.0027156943 
0.0026089614 
0.0025094645 
0.0024164938 
0.002329426 
0.0022477147 
0.0021708817 
0.0020985014 
0.002030198 
0.0019656373 
0.0019045182 
0.0018465717 
0.0017915583 
0.0017392606 
0.0016894791 
0.0016420356 
0.0015967672 
0.0015535323 
0.0015121989 
0.0014726428 
0.0014347486 
0.0013984136 
0.0013635458 
0.0013300587 
0.0012978724 
0.0012669143 
0.0012371156 
0.0012084147 
0.0011807533 
0.0011540795 
0.0011283418 
0.0011034919 
0.0010794871 
0.0010562898 
0.0010338638 
0.001012175 
0.000991185 
0.0009708639 
0.0009511875 
0.0009321248 
0.00091365015 
0.00089574134 
0.000878374 
0.0008615264 
0.0008451789 
0.000829311 
0.0008139049 
0.00079893967 
0.0007843986 
0.00077026844 
0.00075653323 
0.00074317603 
0.00073018286 
0.00071754085 
0.0007052355 
0.00069325295 
0.0006815798 
0.00067020557 
0.0006591188 
0.0006483069 
0.0006377596 
0.0006274681 
0.00061742053 
0.0006076053 
0.0005980122 
0.00058863417 
0.00057946646 
0.0005704999 
0.0005617245 
0.0005531318 
0.00054471527 
0.0005364695 
0.000528388 
0.0005204647 
0.0005126924 
0.0005050661 
0.00049758155 
0.0004902365 
0.00048302521 
0.00047594134 
0.00046898227 
0.00046214767 
0.0004554358 
0.00044884317 
0.0004423657 
0.00043599977 
0.00042974533 
0.00042360043 
0.00041756252 
0.0004116344 
0.00040581223 
0.00040009132 
0.00039447474 
0.00038896324 
0.00038355446 
0.0003782439 
0.00037303256 
0.0003679215 
0.00036291135 
0.0003580017 
0.00035318692 
0.00034846575 
0.00034384112 
0.00033930936 
0.00033487094 
0.0003305241 
0.0003262652 
0.00032209398 
0.00031801072 
0.000314012 
0.00031009587 
0.00030625772 
0.00030249386 
0.00029880734 
0.00029519794 
0.00029165958 
0.0002881854 
0.00028477475 
0.00028142825 
0.00027814123 
0.00027491077 
0.00027173615 
0.00026861267 
0.0002655356 
0.00026250505 
0.00025951938 
0.00025657483 
0.0002536665 
0.0002507924 
0.0002479539 
0.00024514904 
0.0002423743 
0.00023962697 
0.0002369069 
0.0002342108 
0.00023153776 
0.00022888798 
0.00022626187 
0.00022365633 
0.00022107056 
0.00021850671 
0.00021596481 
0.00021344305 
0.00021093905 
0.0002084562 
0.00020599645 
0.00020356025 
0.00020114976 
0.00019876199 
0.000196398 
0.00019406057 
0.00019174923 
0.0001894663 
0.00018721489 
0.00018499412 
0.0001828032 
0.00018064652 
0.00017852578 
0.00017643964 
0.00017438714 
0.0001723704 
0.00017039236 
0.0001684552 
0.00016655758 
0.00016469715 
0.00016287522 
0.00016109343 
0.00015935049 
0.00015764646 
0.00015598246 
0.00015435532 
0.00015276427 
0.00015121057 
0.0001496925 
0.00014820816 
0.00014675458 
0.00014533149 
0.0001439391 
0.00014257584 
0.00014123943 
0.0001399259 
0.0001386353 
0.0001373652 
0.00013611288 
0.00013487709 
0.00013365704 
0.00013245012 
0.00013125375 
0.00013006653 
0.00012888802 
0.00012771538 
0.00012654469 
0.0001253766 
0.00012421148 
0.000123049 
0.000121886485 
0.0001207205 
0.000119552824 
0.00011838377 
0.00011721174 
0.00011603637 
0.00011485815 
0.0001136774 
0.00011249437 
0.00011130977 
0.000110124856 
0.00010893986 
0.00010775336 
0.00010656776 
0.00010538663 
0.00010421007 
0.00010304016 
0.00010187549 
0.00010071791 
9.957022e-05 
9.8434546e-05 
9.731132e-05 
9.620234e-05 
9.5108415e-05 
9.403135e-05 
9.297315e-05 
9.19367e-05 
9.091633e-05 
8.991786e-05 
8.894214e-05 
8.799159e-05 
8.7065346e-05 
8.616452e-05 
8.528722e-05 
8.4434774e-05 
8.360776e-05 
8.280516e-05 
8.2027786e-05 
8.12755e-05 
8.054692e-05 
7.9840815e-05 
7.915644e-05 
7.8494e-05 
7.785134e-05 
7.722561e-05 
7.661769e-05 
7.602667e-05 
7.544972e-05 
7.488606e-05 
7.433256e-05 
7.3788935e-05 
7.3252086e-05 
7.271986e-05 
7.2192786e-05 
7.166946e-05 
7.114646e-05 
7.0621434e-05 
7.009492e-05 
6.9565715e-05 
6.903126e-05 
6.848983e-05 
6.794117e-05 
6.738575e-05 
6.682227e-05 
6.6249595e-05 
6.5666034e-05 
6.507194e-05 
6.446774e-05 
6.385329e-05 
6.3228516e-05 
6.259426e-05 
6.1951476e-05 
6.1299266e-05 
6.063923e-05 
5.9973652e-05 
5.9301656e-05 
5.862264e-05 
5.7940808e-05 
5.7258232e-05 
5.657479e-05 
5.589363e-05 
5.5213262e-05 
5.4535078e-05 
5.3862474e-05 
5.319709e-05 
5.2540337e-05 
5.1893174e-05 
5.125691e-05 
5.063252e-05 
5.002244e-05 
4.9428283e-05 
4.884953e-05 
4.8286223e-05 
4.7741272e-05 
4.721554e-05 
4.6708337e-05 
4.6221754e-05 
4.5754878e-05 
4.5307075e-05 
4.4877615e-05 
4.4467546e-05 
4.4078384e-05 
4.3707932e-05 
4.3354165e-05 
4.3017095e-05 
4.2696454e-05 
4.239145e-05 
4.210019e-05 
4.1820636e-05 
4.1552496e-05 
4.1295043e-05 
4.1046387e-05 
4.0805484e-05 
4.0568713e-05 
4.0333758e-05 
4.0101007e-05 
3.9869206e-05 
3.963665e-05 
3.940143e-05 
3.916207e-05 
3.8915987e-05 
3.8662827e-05 
3.840392e-05 
3.813552e-05 
3.785482e-05 
3.7563746e-05 
3.7261987e-05 
3.694879e-05 
3.6624326e-05 
3.628573e-05 
3.5933168e-05 
3.5567904e-05 
3.518942e-05 
3.479882e-05 
3.439699e-05 
3.398346e-05 
3.3559467e-05 
3.3127035e-05 
3.2685555e-05 
3.2235846e-05 
3.17794e-05 
3.131876e-05 
3.0856096e-05 
3.0391917e-05 
2.9927709e-05 
2.946326e-05 
2.8999459e-05 
2.8539736e-05 
2.80864e-05 
2.7639553e-05 
2.7201255e-05 
2.6773492e-05 
2.6355026e-05 
2.5948959e-05 
2.5557441e-05 
2.5178437e-05 
2.481297e-05 
2.4463743e-05 
2.4131512e-05 
2.3816567e-05 
2.351973e-05 
2.323776e-05 
2.2972017e-05 
2.2724356e-05 
2.24932e-05 
2.2277398e-05 
2.2077671e-05 
2.189228e-05 
2.1720454e-05 
2.1562275e-05 
2.1416037e-05 
2.127935e-05 
2.115109e-05 
2.1030986e-05 
2.0918242e-05 
2.0811973e-05 
2.0709009e-05 
2.0606136e-05 
2.0503752e-05 
2.0400683e-05 
2.02954e-05 
2.0186397e-05 
2.0072252e-05 
1.9951582e-05 
1.9821735e-05 
1.9683415e-05 
1.953572e-05 
1.9376048e-05 
1.920382e-05 
1.9019626e-05 
1.8823166e-05 
1.8613568e-05 
1.8392077e-05 
1.8154098e-05 
1.7900684e-05 
1.7635084e-05 
1.7356406e-05 
1.7064745e-05 
1.6761323e-05 
1.6446114e-05 
1.6119602e-05 
1.57836e-05 
1.5439215e-05 
1.5087014e-05 
1.4727059e-05 
1.4362433e-05 
1.3996103e-05 
1.3627889e-05 
1.3259922e-05 
1.2890983e-05 
1.2523534e-05 
1.2160263e-05 
1.18016505e-05 
1.1450607e-05 
1.1107462e-05 
1.07732485e-05 
1.0448452e-05 
1.0134814e-05 
9.833892e-06 
9.545584e-06 
9.26919e-06 
9.007371e-06 
8.762435e-06 
8.533704e-06 
8.32084e-06 
8.121029e-06 
7.93446e-06 
7.764292e-06 
7.6081897e-06 
7.4672344e-06 
7.340814e-06 
7.2248113e-06 
7.120491e-06 
7.0278456e-06 
6.9449015e-06 
6.8695917e-06 
6.800254e-06 
6.7369538e-06 
6.6791686e-06 
6.625378e-06 
6.5737104e-06 
6.5198315e-06 
6.464104e-06 
6.406476e-06 
6.3444877e-06 
6.27733e-06 
6.203775e-06 
6.1211404e-06 
6.028989e-06 
5.927891e-06 
5.816186e-06 
5.690962e-06 
5.5514997e-06 
5.3997987e-06 
5.2356554e-06 
5.058353e-06 
4.867647e-06 
4.6603686e-06 
4.438578e-06 
4.204069e-06 
3.956744e-06 
3.6963872e-06 
3.4239704e-06 
3.1397255e-06 
2.8447837e-06 
2.5412676e-06 
2.2302938e-06 
1.910553e-06 
1.5836725e-06 
1.2535587e-06 
9.212729e-07 
5.869576e-07 
2.521704e-07 
-8.282923e-08 
-4.1631012e-07 
-7.4509063e-07 
-1.0688018e-06 
-1.3852673e-06 
-1.692739e-06 
-1.9932343e-06 
-2.2849633e-06 
-2.5651605e-06 
-2.8331895e-06 
-3.0896315e-06 
-3.3352476e-06 
-3.5662508e-06 
-3.781825e-06 
-3.9829883e-06 
-4.170093e-06 
-4.345579e-06 
-4.5071924e-06 
-4.654277e-06 
-4.788242e-06 
-4.909856e-06 
-5.019135e-06 
-5.117522e-06 
-5.2066853e-06 
-5.2865835e-06 
-5.3584954e-06 
-5.4245e-06 
-5.4864167e-06 
-5.5432233e-06 
-5.5953083e-06 
-5.645533e-06 
-5.6965123e-06 
-5.75089e-06 
-5.8083992e-06 
-5.8684714e-06 
-5.934215e-06 
-6.007412e-06 
-6.087986e-06 
-6.17793e-06 
-6.2777667e-06 
-6.387965e-06 
-6.5101203e-06 
-6.645759e-06 
-6.7959813e-06 
-6.958735e-06 
-7.133501e-06 
-7.322261e-06 
-7.5253797e-06 
-7.744072e-06 
-7.977387e-06 
-8.223976e-06 
-8.482916e-06 
-8.753756e-06 
-9.0363765e-06 
-9.330463e-06 
-9.635145e-06 
-9.948766e-06 
-1.0269996e-05 
-1.0598614e-05 
-1.0933973e-05 
-1.1272561e-05 
-1.1612813e-05 
-1.1954217e-05 
-1.2295829e-05 
-1.2638309e-05 
-1.29784485e-05 
-1.3315001e-05 
-1.3645617e-05 
-1.3970024e-05 
-1.428826e-05 
-1.4597265e-05 
-1.4896786e-05 
-1.5187184e-05 
-1.5466154e-05 
-1.5733393e-05 
-1.5990245e-05 
-1.623411e-05 
-1.6464364e-05 
-1.6681568e-05 
-1.688552e-05 
-1.707858e-05 
-1.725899e-05 
-1.7427374e-05 
-1.7584354e-05 
-1.7729411e-05 
-1.7865295e-05 
-1.7991599e-05 
-1.8109517e-05 
-1.8220595e-05 
-1.8325358e-05 
-1.842596e-05 
-1.8524583e-05 
-1.861926e-05 
-1.8711575e-05 
-1.8804058e-05 
-1.8897572e-05 
-1.899653e-05 
-1.9101011e-05 
-1.921041e-05 
-1.9326046e-05 
-1.9449708e-05 
-1.9583138e-05 
-1.9725636e-05 
-1.9878751e-05 
-2.0043737e-05 
-2.0222236e-05 
-2.0416108e-05 
-2.0624278e-05 
-2.0844358e-05 
-2.1078087e-05 
-2.1325994e-05 
-2.1588243e-05 
-2.186734e-05 
-2.2160522e-05 
-2.2466926e-05 
-2.2786673e-05 
-2.3118942e-05 
-2.3462128e-05 
-2.381631e-05 
-2.4181816e-05 
-2.4554889e-05 
-2.4935453e-05 
-2.5324976e-05 
-2.5721518e-05 
-2.612146e-05 
-2.6522943e-05 
-2.692524e-05 
-2.7328686e-05 
-2.7733426e-05 
-2.813554e-05 
-2.8535087e-05 
-2.8930079e-05 
-2.9319472e-05 
-2.9703211e-05 
-3.0078747e-05 
-3.0445577e-05 
-3.0803774e-05 
-3.1152842e-05 
-3.1492684e-05 
-3.1823292e-05 
-3.214249e-05 
-3.2449072e-05 
-3.2743777e-05 
-3.3028038e-05 
-3.3303768e-05 
-3.3569624e-05 
-3.382507e-05 
-3.4071556e-05 
-3.431014e-05 
-3.454101e-05 
-3.476417e-05 
-3.4981662e-05 
-3.519467e-05 
-3.540365e-05 
-3.561151e-05 
-3.582034e-05 
-3.6027854e-05 
-3.6236594e-05 
-3.6446694e-05 
-3.6661077e-05 
-3.6883863e-05 
-3.711274e-05 
-3.7349277e-05 
-3.7594993e-05 
-3.785028e-05 
-3.8116374e-05 
-3.839608e-05 
-3.8689446e-05 
-3.899457e-05 
-3.9314433e-05 
-3.965054e-05 
-4.000352e-05 
-4.0369967e-05 
-4.075148e-05 
-4.114958e-05 
-4.156288e-05 
-4.199432e-05 
-4.244072e-05 
-4.2901975e-05 
-4.33778e-05 
-4.3866537e-05 
-4.4368375e-05 
-4.488271e-05 
-4.5407935e-05 
-4.594211e-05 
-4.6486046e-05 
-4.70392e-05 
-4.7600297e-05 
-4.8165795e-05 
-4.873451e-05 
-4.9305992e-05 
-4.987956e-05 
-5.0456303e-05 
-5.103241e-05 
-5.160716e-05 
-5.2180818e-05 
-5.2750212e-05 
-5.3315183e-05 
-5.3875403e-05 
-5.443006e-05 
-5.4978154e-05 
-5.551942e-05 
-5.6054225e-05 
-5.65833e-05 
-5.7104386e-05 
-5.76163e-05 
-5.8119975e-05 
-5.861746e-05 
-5.9110112e-05 
-5.9596725e-05 
-6.0077262e-05 
-6.0552935e-05 
-6.1024366e-05 
-6.149224e-05 
-6.1958315e-05 
-6.2423365e-05 
-6.28873e-05 
-6.335267e-05 
-6.3821724e-05 
-6.429643e-05 
-6.477386e-05 
-6.525611e-05 
-6.574529e-05 
-6.624437e-05 
-6.6755594e-05 
-6.7277484e-05 
-6.7812005e-05 
-6.836035e-05 
-6.892429e-05 
-6.9502756e-05 
-7.009733e-05 
-7.070961e-05 
-7.1339135e-05 
-7.198716e-05 
-7.265549e-05 
-7.3345174e-05 
-7.405121e-05 
-7.47756e-05 
-7.552057e-05 
-7.6285825e-05 
-7.707155e-05 
-7.787687e-05 
-7.8700585e-05 
-7.95417e-05 
-8.039941e-05 
-8.127383e-05 
-8.216563e-05 
-8.3071165e-05 
-8.398949e-05 
-8.4921856e-05 
-8.586601e-05 
-8.68228e-05 
-8.7787186e-05 
-8.875953e-05 
-8.973904e-05 
-9.072615e-05 
-9.172075e-05 
-9.2720176e-05 
-9.372298e-05 
-9.472917e-05 
-9.573787e-05 
-9.6748015e-05 
-9.775866e-05 
-9.8769335e-05 
-9.978031e-05 
-0.000100791665 
-0.0001018038 
-0.00010281736 
-0.00010382903 
-0.00010483851 
-0.000105849576 
-0.00010686352 
-0.00010788032 
-0.000108899185 
-0.00010992037 
-0.0001109461 
-0.000111977264 
-0.00011301414 
-0.00011405881 
-0.0001151115 
-0.000116173134 
-0.00011724691 
-0.00011833406 
-0.000119436525 
-0.0001205522 
-0.00012168264 
-0.00012283132 
-0.0001240009 
-0.00012519289 
-0.00012640566 
-0.00012764169 
-0.0001289026 
-0.00013018826 
-0.00013149995 
-0.00013283904 
-0.00013420584 
-0.00013560073 
-0.00013702486 
-0.00013847985 
-0.00013996697 
-0.00014148187 
-0.00014302424 
-0.00014459864 
-0.00014620443 
-0.0001478416 
-0.00014950952 
-0.00015120719 
-0.00015293341 
-0.00015468773 
-0.0001564712 
-0.00015828284 
-0.00016011945 
-0.00016198185 
-0.0001638708 
-0.00016578553 
-0.00016772505 
-0.00016968482 
-0.00017166579 
-0.00017366985 
-0.00017569607 
-0.00017774502 
-0.00017981374 
-0.00018190203 
-0.00018401044 
-0.00018613705 
-0.00018828263 
-0.00019044895 
-0.00019263312 
-0.00019483542 
-0.00019705902 
-0.0001993047 
-0.00020157156 
-0.00020385758 
-0.00020616458 
-0.00020849532 
-0.00021085223 
-0.00021323693 
-0.000215648 
-0.00021808727 
-0.00022055653 
-0.00022305711 
-0.00022559142 
-0.000228161 
-0.00023076576 
-0.00023340811 
-0.00023609248 
-0.00023881996 
-0.00024159197 
-0.00024440818 
-0.0002472711 
-0.0002501844 
-0.00025315018 
-0.00025617093 
-0.0002592478 
-0.00026238133 
-0.00026557368 
-0.0002688257 
-0.00027213997 
-0.00027551744 
-0.00027895856 
-0.00028246513 
-0.00028603853 
-0.00028968218 
-0.00029339618 
-0.00029717796 
-0.00030102898 
-0.00030495194 
-0.00030895043 
-0.00031302663 
-0.00031717564 
-0.00032139727 
-0.00032569462 
-0.00033007067 
-0.00033452496 
-0.00033905538 
-0.00034366158 
-0.00034834768 
-0.00035311628 
-0.0003579685 
-0.00036290163 
-0.0003679135 
-0.0003730089 
-0.0003781919 
-0.00038346183 
-0.00038882237 
-0.00039427401 
-0.0003998168 
-0.00040545408 
-0.00041118794 
-0.00041701997 
-0.00042295206 
-0.00042898773 
-0.0004351319 
-0.00044138767 
-0.00044775885 
-0.000454249 
-0.00046085793 
-0.00046759157 
-0.0004744569 
-0.00048145867 
-0.00048860296 
-0.0004958918 
-0.0005033291 
-0.00051092205 
-0.00051867677 
-0.0005265977 
-0.0005346908 
-0.00054296467 
-0.000551425 
-0.0005600771 
-0.0005689288 
-0.0005779882 
-0.0005872608 
-0.00059675414 
-0.00060647685 
-0.00061643886 
-0.0006266479 
-0.0006371097 
-0.00064783473 
-0.0006588322 
-0.0006701103 
-0.0006816801 
-0.00069355225 
-0.0007057339 
-0.00071823737 
-0.0007310787 
-0.0007442671 
-0.00075781264 
-0.00077172864 
-0.0007860289 
-0.00080072903 
-0.0008158467 
-0.00083139783 
-0.0008473971 
-0.00086385984 
-0.0008808079 
-0.0008982597 
-0.0009162364 
-0.0009347639 
-0.0009538644 
-0.0009735659 
-0.0009938995 
-0.001014902 
-0.0010366059 
-0.0010590337 
-0.0010821997 
-0.001106093 
-0.0011306766 
-0.0011559359 
-0.0011819822 
-0.0012092382 
-0.0012386437 
-0.0012716863 
-0.0013098225 
-0.0013526734 
-0.0013944507 
-0.0014386681 
-0.001484774 
-0.001532378 
-0.0015811153 
-0.0016306187 
-0.0016805176 
-0.0017305111 
-0.0017803852 
-0.001830079 
-0.0018797222 
-0.0019296447 
-0.0019803955 
-0.002032699 
-0.002087419 
-0.0021455083 
-0.0022079335 
-0.002275619 
-0.002349399 
-0.0024299934 
-0.0025180008 
-0.0026139421 
-0.0027183227 
-0.0028316893 
-0.0029547003 
-0.0030881942 
-0.0032332537 
-0.003391269 
-0.003563979 
-0.003753546 
-0.0039626216 
-0.00419446 
-0.004453078 
-0.0047434787 
-0.0050719995 
-0.005446822 
-0.005878698 
-0.0063821105 
-0.006977061 
-0.007691934 
-0.0085682385 
-0.009668577 
-0.011090283 
-0.012989025 
-0.015619417 
-0.01940437 
-0.025049856 
-0.033672825 
-0.046703123 
-0.06373589 
0.047655113 
0.037780542 
0.028194921 
0.02127877 
0.016946292 
0.014514719 
0.0127742905 
0.011306809 
0.010019023 
0.008910501 
0.007982941 
0.007219881 
0.0065927473 
0.0060710693 
0.0056289276 
0.0052469936 
0.004911878 
0.004614504 
0.0043485444 
0.004109321 
0.0038931377 
0.003696936 
0.0035181292 
0.0033545217 
0.0032042514 
0.0030657407 
0.0029376457 
0.0028188268 
0.0027083135 
0.0026052631 
0.0025089472 
0.0024187264 
0.0023340387 
0.0022543897 
0.0021793453 
0.0021085157 
0.002041556 
0.0019781576 
0.0019180435 
0.0018609626 
0.0018066935 
0.0017550307 
0.0017057884 
0.0016588008 
0.0016139185 
0.0015710043 
0.0015299291 
0.0014905775 
0.0014528437 
0.0014166287 
0.0013818432 
0.0013484063 
0.0013162447 
0.0012852845 
0.0012554615 
0.0012267181 
0.0011989969 
0.0011722477 
0.0011464206 
0.0011214712 
0.0010973595 
0.0010740482 
0.0010515007 
0.0010296808 
0.0010085574 
0.000988102 
0.00096828566 
0.00094908196 
0.0009304657 
0.0009124125 
0.00089490146 
0.00087791187 
0.0008614211 
0.0008454101 
0.00082986004 
0.00081475324 
0.00080007396 
0.0007858058 
0.0007719322 
0.00075843756 
0.0007453096 
0.00073253334 
0.0007200928 
0.00070797483 
0.0006961678 
0.0006846599 
0.00067344005 
0.00066249474 
0.0006518149 
0.0006413882 
0.0006312037 
0.00062125066 
0.00061152107 
0.00060200965 
0.00059270445 
0.00058359734 
0.00057467935 
0.00056594383 
0.000557386 
0.0005489965 
0.000540769 
0.0005326979 
0.0005247769 
0.000517001 
0.0005093684 
0.00050187326 
0.0004945104 
0.00048727592 
0.00048016832 
0.0004731863 
0.00046632643 
0.00045958473 
0.00045295776 
0.0004464463 
0.00044004855 
0.00043376023 
0.00042758428 
0.00042151948 
0.00041556073 
0.00040970833 
0.0004039639 
0.00039832803 
0.00039279668 
0.00038736788 
0.0003820417 
0.00037682083 
0.0003717037 
0.000366688 
0.00036177348 
0.00035695932 
0.00035224305 
0.00034762276 
0.0003431005 
0.00033867286 
0.00033433829 
0.00033009503 
0.00032594032 
0.00032187218 
0.0003178893 
0.0003139881 
0.00031016523 
0.00030642215 
0.0003027542 
0.00029915562 
0.00029562533 
0.00029216133 
0.00028876055 
0.0002854191 
0.00028213483 
0.0002789041 
0.00027572343 
0.0002725903 
0.00026950316 
0.00026645823 
0.00026345145 
0.00026048016 
0.000257544 
0.00025464105 
0.00025176906 
0.000248925 
0.00024610624 
0.00024331201 
0.00024054082 
0.00023779238 
0.00023506612 
0.00023235954 
0.00022967285 
0.00022700672 
0.00022436115 
0.00022173571 
0.0002191284 
0.00021654088 
0.00021397599 
0.00021143458 
0.00020891696 
0.00020642251 
0.0002039529 
0.00020150992 
0.0001990946 
0.00019670781 
0.00019435183 
0.0001920282 
0.00018973775 
0.0001874819 
0.00018526216 
0.00018307868 
0.0001809332 
0.00017882673 
0.00017676044 
0.00017473625 
0.00017275396 
0.00017081285 
0.00016891351 
0.00016705685 
0.00016524245 
0.00016346973 
0.00016173917 
0.00016004949 
0.00015839956 
0.0001567892 
0.00015521712 
0.0001536815 
0.00015218073 
0.00015071315 
0.00014927759 
0.00014787307 
0.00014649724 
0.00014514696 
0.00014382065 
0.00014251602 
0.00014123139 
0.00013996408 
0.00013871207 
0.00013747434 
0.00013624792 
0.00013502956 
0.00013381965 
0.0001326153 
0.00013141369 
0.00013021367 
0.0001290146 
0.00012781643 
0.00012661701 
0.00012541394 
0.0001242074 
0.00012299712 
0.00012178246 
0.00012056311 
0.0001193391 
0.000118110904 
0.00011687903 
0.00011564391 
0.00011440611 
0.00011316679 
0.00011192631 
0.00011068536 
0.00010944663 
0.0001082121 
0.0001069826 
0.00010575863 
0.00010454214 
0.00010333469 
0.00010213984 
0.00010095755 
9.979024e-05 
9.863893e-05 
9.7505326e-05 
9.639122e-05 
9.5299445e-05 
9.4227034e-05 
9.317883e-05 
9.21546e-05 
9.115683e-05 
9.018648e-05 
8.9242625e-05 
8.832529e-05 
8.743553e-05 
8.657333e-05 
8.573867e-05 
8.493115e-05 
8.415122e-05 
8.339784e-05 
8.2669205e-05 
8.1964565e-05 
8.128406e-05 
8.062513e-05 
7.998619e-05 
7.93665e-05 
7.876459e-05 
7.817853e-05 
7.760733e-05 
7.704711e-05 
7.649684e-05 
7.5954966e-05 
7.541889e-05 
7.488765e-05 
7.435958e-05 
7.383131e-05 
7.3301046e-05 
7.276844e-05 
7.2232215e-05 
7.169031e-05 
7.114029e-05 
7.058171e-05 
7.0014255e-05 
6.943726e-05 
6.884881e-05 
6.8247806e-05 
6.763505e-05 
6.70097e-05 
6.6373126e-05 
6.572454e-05 
6.506359e-05 
6.439178e-05 
6.370919e-05 
6.3018095e-05 
6.23186e-05 
6.161069e-05 
6.0896215e-05 
6.0177445e-05 
5.945571e-05 
5.873342e-05 
5.8011326e-05 
5.728975e-05 
5.657142e-05 
5.585834e-05 
5.5152526e-05 
5.445506e-05 
5.376757e-05 
5.3092383e-05 
5.243055e-05 
5.1783765e-05 
5.115394e-05 
5.0540624e-05 
4.9945527e-05 
4.9370672e-05 
4.8816117e-05 
4.8282825e-05 
4.7771693e-05 
4.7281726e-05 
4.6813722e-05 
4.636746e-05 
4.5942605e-05 
4.5539306e-05 
4.515732e-05 
4.4795583e-05 
4.445228e-05 
4.412663e-05 
4.3818192e-05 
4.3525888e-05 
4.3247637e-05 
4.298161e-05 
4.2727213e-05 
4.2482563e-05 
4.2245414e-05 
4.201388e-05 
4.178561e-05 
4.15599e-05 
4.133454e-05 
4.1107807e-05 
4.0878764e-05 
4.064456e-05 
4.0403072e-05 
4.0153966e-05 
3.9896968e-05 
3.9629405e-05 
3.934927e-05 
3.9056882e-05 
3.8751557e-05 
3.8432543e-05 
3.8099915e-05 
3.7752383e-05 
3.7389338e-05 
3.701074e-05 
3.6617257e-05 
3.621011e-05 
3.5789195e-05 
3.5355475e-05 
3.4909186e-05 
3.445148e-05 
3.398435e-05 
3.350823e-05 
3.302402e-05 
3.253432e-05 
3.204075e-05 
3.154535e-05 
3.104898e-05 
3.0552084e-05 
3.0056126e-05 
2.956481e-05 
2.9079862e-05 
2.8601682e-05 
2.8132024e-05 
2.7674074e-05 
2.722764e-05 
2.6794089e-05 
2.6375348e-05 
2.5971282e-05 
2.5583337e-05 
2.5212803e-05 
2.4860894e-05 
2.4528446e-05 
2.4214989e-05 
2.3919367e-05 
2.3642933e-05 
2.3385765e-05 
2.3147415e-05 
2.2926757e-05 
2.2723572e-05 
2.2536757e-05 
2.2365683e-05 
2.2209464e-05 
2.2066995e-05 
2.1935797e-05 
2.1814176e-05 
2.170191e-05 
2.1598065e-05 
2.1500988e-05 
2.1408137e-05 
2.131636e-05 
2.1224803e-05 
2.1132433e-05 
2.103791e-05 
2.0939204e-05 
2.0834541e-05 
2.0722979e-05 
2.0601263e-05 
2.0469073e-05 
2.0326483e-05 
2.0171137e-05 
2.0002319e-05 
1.9819443e-05 
1.9621435e-05 
1.940892e-05 
1.9181929e-05 
1.893741e-05 
1.8676516e-05 
1.8400897e-05 
1.8109888e-05 
1.7803886e-05 
1.7484033e-05 
1.7151202e-05 
1.6805656e-05 
1.6448688e-05 
1.6081109e-05 
1.5704554e-05 
1.53203e-05 
1.4931259e-05 
1.4538247e-05 
1.4142102e-05 
1.3745691e-05 
1.33489275e-05 
1.2953407e-05 
1.2562432e-05 
1.2176907e-05 
1.1798601e-05 
1.1429147e-05 
1.1069088e-05 
1.0720068e-05 
1.0383334e-05 
1.0060179e-05 
9.751708e-06 
9.4579245e-06 
9.179659e-06 
8.919114e-06 
8.676883e-06 
8.451715e-06 
8.242646e-06 
8.050073e-06 
7.874501e-06 
7.715404e-06 
7.5730113e-06 
7.446098e-06 
7.3321216e-06 
7.2317316e-06 
7.1446843e-06 
7.0683554e-06 
7.000901e-06 
6.9411935e-06 
6.8883323e-06 
6.841183e-06 
6.798187e-06 
6.757492e-06 
6.7157107e-06 
6.672623e-06 
6.6273574e-06 
6.57702e-06 
6.520673e-06 
6.4570004e-06 
6.383905e-06 
6.3001753e-06 
6.205704e-06 
6.0990074e-06 
5.9783874e-06 
5.842341e-06 
5.69216e-06 
5.5276614e-06 
5.3470685e-06 
5.1507795e-06 
4.9375462e-06 
4.708208e-06 
4.46365e-06 
4.2040124e-06 
3.929617e-06 
3.6417678e-06 
3.3407546e-06 
3.0274732e-06 
2.704007e-06 
2.3707453e-06 
2.0279576e-06 
1.6775788e-06 
1.3232234e-06 
9.657905e-07 
6.05941e-07 
2.4476998e-07 
-1.161691e-07 
-4.7492298e-07 
-8.2942677e-07 
-1.1784203e-06 
-1.5195507e-06 
-1.8515377e-06 
-2.1751894e-06 
-2.488548e-06 
-2.7901292e-06 
-3.0777053e-06 
-3.3518813e-06 
-3.6120139e-06 
-3.8572307e-06 
-4.0865752e-06 
-4.299038e-06 
-4.4957483e-06 
-4.6778187e-06 
-4.844178e-06 
-4.994691e-06 
-5.130173e-06 
-5.251694e-06 
-5.359769e-06 
-5.455206e-06 
-5.539297e-06 
-5.6132894e-06 
-5.6771783e-06 
-5.7338416e-06 
-5.7856587e-06 
-5.832508e-06 
-5.8745977e-06 
-5.913957e-06 
-5.9537456e-06 
-5.9956124e-06 
-6.041061e-06 
-6.0904476e-06 
-6.1455853e-06 
-6.2080467e-06 
-6.2793056e-06 
-6.361222e-06 
-6.454352e-06 
-6.559394e-06 
-6.6766756e-06 
-6.808864e-06 
-6.9568405e-06 
-7.119078e-06 
-7.2966886e-06 
-7.4895324e-06 
-7.699134e-06 
-7.925814e-06 
-8.1676535e-06 
-8.425082e-06 
-8.696975e-06 
-8.982563e-06 
-9.281429e-06 
-9.593114e-06 
-9.917228e-06 
-1.0251844e-05 
-1.05945055e-05 
-1.0945994e-05 
-1.1304916e-05 
-1.1667474e-05 
-1.20324685e-05 
-1.2399511e-05 
-1.2767837e-05 
-1.3135139e-05 
-1.3500094e-05 
-1.3861828e-05 
-1.4217675e-05 
-1.4566151e-05 
-1.4906225e-05 
-1.523765e-05 
-1.5559066e-05 
-1.5868563e-05 
-1.6165048e-05 
-1.6450063e-05 
-1.6721991e-05 
-1.6978607e-05 
-1.7220596e-05 
-1.744821e-05 
-1.7661634e-05 
-1.7861055e-05 
-1.8045823e-05 
-1.821716e-05 
-1.8375666e-05 
-1.8520985e-05 
-1.8654999e-05 
-1.8778643e-05 
-1.8892095e-05 
-1.8997336e-05 
-1.909587e-05 
-1.9189032e-05 
-1.9277755e-05 
-1.9363562e-05 
-1.9446852e-05 
-1.9529805e-05 
-1.9615029e-05 
-1.9704115e-05 
-1.979857e-05 
-1.9898565e-05 
-2.0005695e-05 
-2.012134e-05 
-2.0247988e-05 
-2.0385145e-05 
-2.053439e-05 
-2.0697044e-05 
-2.0873742e-05 
-2.1066195e-05 
-2.1275326e-05 
-2.1499245e-05 
-2.1737937e-05 
-2.1992553e-05 
-2.2264416e-05 
-2.2553291e-05 
-2.2857925e-05 
-2.3178565e-05 
-2.3513603e-05 
-2.3862649e-05 
-2.422488e-05 
-2.4599389e-05 
-2.4986462e-05 
-2.5382551e-05 
-2.5787556e-05 
-2.6201144e-05 
-2.6622054e-05 
-2.7048156e-05 
-2.7476615e-05 
-2.790622e-05 
-2.8336897e-05 
-2.8767956e-05 
-2.919713e-05 
-2.962277e-05 
-3.0043318e-05 
-3.0458044e-05 
-3.0865696e-05 
-3.1264215e-05 
-3.165337e-05 
-3.203249e-05 
-3.240179e-05 
-3.276e-05 
-3.3106127e-05 
-3.3439497e-05 
-3.3759883e-05 
-3.4067194e-05 
-3.4362216e-05 
-3.4646513e-05 
-3.4918266e-05 
-3.5178968e-05 
-3.542986e-05 
-3.5670535e-05 
-3.5902456e-05 
-3.6125566e-05 
-3.634159e-05 
-3.6552654e-05 
-3.6759724e-05 
-3.6963484e-05 
-3.7166694e-05 
-3.7370017e-05 
-3.7573405e-05 
-3.777954e-05 
-3.799024e-05 
-3.8206705e-05 
-3.8430946e-05 
-3.8663977e-05 
-3.890678e-05 
-3.9160615e-05 
-3.942707e-05 
-3.970684e-05 
-4.0000177e-05 
-4.030912e-05 
-4.063474e-05 
-4.0977062e-05 
-4.1336898e-05 
-4.171326e-05 
-4.2107364e-05 
-4.2518608e-05 
-4.2947544e-05 
-4.339515e-05 
-4.3859985e-05 
-4.4341345e-05 
-4.483902e-05 
-4.5351655e-05 
-4.5878904e-05 
-4.6419464e-05 
-4.697229e-05 
-4.7535956e-05 
-4.8110127e-05 
-4.8693924e-05 
-4.928552e-05 
-4.9882656e-05 
-5.0484672e-05 
-5.1089442e-05 
-5.1696443e-05 
-5.2304968e-05 
-5.2913067e-05 
-5.3520303e-05 
-5.412488e-05 
-5.472521e-05 
-5.5320153e-05 
-5.590938e-05 
-5.649254e-05 
-5.7067275e-05 
-5.7634665e-05 
-5.8194324e-05 
-5.874526e-05 
-5.9286936e-05 
-5.9819457e-05 
-6.034292e-05 
-6.085825e-05 
-6.136615e-05 
-6.186668e-05 
-6.2360836e-05 
-6.2848696e-05 
-6.3330444e-05 
-6.380834e-05 
-6.4283326e-05 
-6.475596e-05 
-6.5227614e-05 
-6.57009e-05 
-6.617677e-05 
-6.665544e-05 
-6.713824e-05 
-6.762781e-05 
-6.812513e-05 
-6.8631176e-05 
-6.9149115e-05 
-6.967944e-05 
-7.022314e-05 
-7.078116e-05 
-7.135487e-05 
-7.1946284e-05 
-7.255594e-05 
-7.318396e-05 
-7.38307e-05 
-7.4497904e-05 
-7.5186916e-05 
-7.5897726e-05 
-7.662832e-05 
-7.7379926e-05 
-7.815324e-05 
-7.894923e-05 
-7.9766694e-05 
-8.060557e-05 
-8.1464845e-05 
-8.2342674e-05 
-8.323939e-05 
-8.415513e-05 
-8.508771e-05 
-8.6036314e-05 
-8.6999265e-05 
-8.797664e-05 
-8.896744e-05 
-8.997039e-05 
-9.098233e-05 
-9.200306e-05 
-9.303117e-05 
-9.4067225e-05 
-9.510943e-05 
-9.615721e-05 
-9.720858e-05 
-9.826227e-05 
-9.9317185e-05 
-0.00010037317 
-0.00010142943 
-0.000102485275 
-0.000103540515 
-0.00010459432 
-0.000105648396 
-0.00010670171 
-0.00010775274 
-0.000108802364 
-0.00010985161 
-0.0001109017 
-0.00011195326 
-0.00011300663 
-0.00011406234 
-0.000115121045 
-0.00011618452 
-0.000117253454 
-0.0001183289 
-0.00011941258 
-0.00012050613 
-0.000121611156 
-0.00012272931 
-0.000123862 
-0.0001250102 
-0.00012617439 
-0.00012735707 
-0.00012856146 
-0.00012978856 
-0.0001310383 
-0.00013231243 
-0.00013361292 
-0.0001349398 
-0.00013629504 
-0.00013767947 
-0.00013909389 
-0.00014053928 
-0.00014201541 
-0.00014352362 
-0.00014506512 
-0.00014663799 
-0.00014824295 
-0.00014988071 
-0.00015155178 
-0.00015325598 
-0.00015499291 
-0.00015676203 
-0.00015856203 
-0.00016039194 
-0.0001622522 
-0.00016414151 
-0.00016605867 
-0.00016800438 
-0.00016997759 
-0.00017197638 
-0.00017399999 
-0.00017604641 
-0.0001781158 
-0.00018020923 
-0.00018232498 
-0.000184462 
-0.00018661987 
-0.00018879779 
-0.00019099558 
-0.00019321211 
-0.00019544766 
-0.000197703 
-0.00019997651 
-0.00020226947 
-0.00020458251 
-0.0002069159 
-0.00020927032 
-0.00021164607 
-0.00021404291 
-0.0002164624 
-0.00021890822 
-0.00022138102 
-0.00022388008 
-0.00022640817 
-0.00022896714 
-0.0002315581 
-0.00023418322 
-0.00023684424 
-0.00023954173 
-0.00024227877 
-0.00024505865 
-0.00024788294 
-0.00025075313 
-0.00025367015 
-0.00025663656 
-0.00025965547 
-0.00026272956 
-0.00026586014 
-0.00026904937 
-0.00027229878 
-0.00027560993 
-0.00027898396 
-0.00028242293 
-0.0002859294 
-0.0002895045 
-0.00029314664 
-0.0002968586 
-0.00030064417 
-0.0003045046 
-0.00030843707 
-0.00031244344 
-0.00031652747 
-0.0003206878 
-0.0003249273 
-0.00032924657 
-0.0003336415 
-0.00033811457 
-0.0003426704 
-0.00034730858 
-0.00035202675 
-0.00035682486 
-0.00036170508 
-0.00036667028 
-0.00037172178 
-0.00037685776 
-0.00038207733 
-0.00038738296 
-0.0003927784 
-0.00039826427 
-0.00040384204 
-0.00040951266 
-0.0004152789 
-0.00042114445 
-0.000427108 
-0.00043317134 
-0.00043933938 
-0.0004456157 
-0.00045200286 
-0.00045850457 
-0.00046512505 
-0.00047186686 
-0.00047873444 
-0.00048573094 
-0.00049286254 
-0.00050013553 
-0.000507554 
-0.0005151218 
-0.0005228447 
-0.0005307288 
-0.0005387811 
-0.00054700626 
-0.00055540964 
-0.0005640005 
-0.0005727868 
-0.0005817726 
-0.0005909648 
-0.0006003719 
-0.00061000313 
-0.0006198658 
-0.000629966 
-0.0006403135 
-0.00065091776 
-0.0006617877 
-0.0006729318 
-0.0006843596 
-0.0006960804 
-0.00070810487 
-0.0007204435 
-0.0007331055 
-0.0007461038 
-0.00075945165 
-0.0007731607 
-0.00078724336 
-0.00080171204 
-0.00081657973 
-0.0008318624 
-0.0008475801 
-0.00086374825 
-0.0008803813 
-0.0008974968 
-0.000915116 
-0.0009332584 
-0.00095194735 
-0.00097120774 
-0.0009910632 
-0.0010115431 
-0.0010326789 
-0.0010545074 
-0.0010770644 
-0.0011003733 
-0.0011244436 
-0.0011492574 
-0.0011747757 
-0.0012009873 
-0.0012280238 
-0.00125635 
-0.0012869723 
-0.0013214536 
-0.0013612784 
-0.0014059762 
-0.0014495305 
-0.001495642 
-0.0015437178 
-0.0015933372 
-0.0016441062 
-0.001695629 
-0.0017475274 
-0.00179946 
-0.0018512092 
-0.0019027081 
-0.0019540926 